  &FCI NORB=  6,NELEC=  6,MS2=  0,
  ORBSYM= 1, 2, 3, 5, 6, 7,
  ISYM=0
 &END
    0.67296870397        1    1    1    1
    0.99155398807E-01    2    1    2    1
    0.58038407131        2    2    1    1
    0.55560982379        2    2    2    2
    0.99155398807E-01    3    1    3    1
    0.21641449931E-01    3    2    3    2
    0.58038407131        3    3    1    1
    0.51232692393        3    3    2    2
    0.55560982379        3    3    3    3
    0.71556064780E-01    4    1    4    1
    0.41760165783E-01    4    2    4    2
    0.41760165783E-01    4    3    4    3
    0.49743258926        4    4    1    1
    0.48675477947        4    4    2    2
    0.48675477947        4    4    3    3
    0.54286288395        4    4    4    4
    0.40856519417E-01    5    1    4    2
    0.48394704874E-01    5    1    5    1
    0.10375577231        5    2    4    1
    0.17970936784        5    2    5    2
    0.17177740571E-01    5    3    5    3
    0.67066637919E-01    5    4    2    1
    0.69898579621E-01    5    4    5    4
    0.58528823545        5    5    1    1
    0.57013592163        5    5    2    2
    0.52848013638        5    5    3    3
    0.52695744805        5    5    4    4
    0.60658074892        5    5    5    5
    0.40856519417E-01    6    1    4    3
    0.48394704874E-01    6    1    6    1
    0.17177740571E-01    6    2    5    3
    0.17177740571E-01    6    2    6    2
    0.10375577231        6    3    4    1
    0.14535388670        6    3    5    2
    0.17970936784        6    3    6    3
    0.67066637919E-01    6    4    3    1
    0.69898579621E-01    6    4    6    4
    0.20827892628E-01    6    5    3    2
    0.23681184589E-01    6    5    6    5
    0.58528823545        6    6    1    1
    0.52848013638        6    6    2    2
    0.57013592163        6    6    3    3
    0.52695744805        6    6    4    4
    0.55921837974        6    6    5    5
    0.60658074892        6    6    6    6
    -4.6715058699        1    1    0    0
    -3.6882898413        2    2    0    0
    -3.6882898413        3    3    0    0
    -3.5171483055        4    4    0    0
    -3.4446745965        5    5    0    0
    -3.4446745965        6    6    0    0
    -1.5128000000        1    0    0    0
   -0.75882000000        2    0    0    0
   -0.75882000000        3    0    0    0
   -0.80951000000        4    0    0    0
   -0.38258000000        5    0    0    0
   -0.38258000000        6    0    0    0
    -86.688789566        0    0    0    0
