  &FCI NORB=  6,NELEC=  6,MS2=  0,
  ORBSYM= 1, 1, 1, 1, 1, 1,
  ISYM=0
 &END
    0.28584774210        1    1    1    1
    0.99833961624E-01    2    1    2    1
    0.26297343315        2    2    1    1
    0.29573287004        2    2    2    2
    0.92809914576E-01    3    1    3    1
    0.45175405554E-01    3    2    3    2
    0.29655813109        3    3    1    1
    0.25236025332        3    3    2    2
    0.32160446466        3    3    3    3
    0.52019669191E-01    4    1    3    2
    0.59966178724E-01    4    1    4    1
    0.72324350363E-01    4    2    3    1
    0.11442735463        4    2    4    2
    0.87563694814E-01    4    3    2    1
    0.78826320509E-01    4    3    4    3
    0.26455723058        4    4    1    1
    0.30112601141        4    4    2    2
    0.25540555378        4    4    3    3
    0.31104030813        4    4    4    4
    0.30085331948E-01    5    1    1    1
   -0.35878200218E-01    5    1    2    2
    0.56883722327E-01    5    1    3    3
   -0.39817175729E-01    5    1    4    4
    0.79113660142E-01    5    1    5    1
   -0.84041191226E-01    5    2    2    1
   -0.74292083717E-01    5    2    4    3
    0.73600555192E-01    5    2    5    2
    0.41787594839E-01    5    3    3    1
   -0.27411580069E-01    5    3    4    2
    0.81695291639E-01    5    3    5    3
   -0.46160835885E-01    5    4    3    2
   -0.53538018045E-01    5    4    4    1
    0.49605377997E-01    5    4    5    4
    0.30119205531        5    5    1    1
    0.25825970039        5    5    2    2
    0.32379095728        5    5    3    3
    0.26004964932        5    5    4    4
    0.56387272294E-01    5    5    5    1
    0.33082633135        5    5    5    5
   -0.98264108023E-02    6    1    3    1
    0.49826512714E-01    6    1    4    2
   -0.64415744398E-01    6    1    5    3
    0.58365041560E-01    6    1    6    1
    0.52627805520E-01    6    2    3    2
    0.60986270286E-01    6    2    4    1
   -0.56187688444E-01    6    2    5    4
    0.63702329520E-01    6    2    6    2
   -0.30801498259E-01    6    3    1    1
    0.38770731968E-01    6    3    2    2
   -0.61191259185E-01    6    3    3    3
    0.44364435236E-01    6    3    4    4
   -0.84088082555E-01    6    3    5    1
   -0.60351557288E-01    6    3    5    5
    0.92229922222E-01    6    3    6    3
    0.10211943566        6    4    2    1
    0.92129367377E-01    6    4    4    3
   -0.89185329385E-01    6    4    5    2
    0.11021569020        6    4    6    4
   -0.10112488420        6    5    3    1
   -0.79309507325E-01    6    5    4    2
   -0.46804571320E-01    6    5    5    3
    0.11407009651E-01    6    5    6    1
    0.11366449942        6    5    6    5
    0.29363744704        6    6    1    1
    0.27143381446        6    6    2    2
    0.31121654391        6    6    3    3
    0.27697890099        6    6    4    4
    0.32097260231E-01    6    6    5    1
    0.31656072660        6    6    5    5
   -0.35017813383E-01    6    6    6    3
    0.31218036052        6    6    6    6
    -1.6509946913        1    1    0    0
    -1.5018687970        2    2    0    0
    -1.5589862574        3    3    0    0
    -1.3862516682        4    4    0    0
   -0.11434997313        5    1    0    0
    -1.5258122677        5    5    0    0
    0.88054190202E-01    6    3    0    0
    -1.3916122503        6    6    0    0
     3.1017336739        0    0    0    0
