 &FCI NORB=19 ,NELEC= 5 ,MS2= 1  
  ORBSYM=1,1,1,4,3,1,1,3,4,1,3,4,2,1,1,1,3,4,1,
  ISYM=1 UHF=.FALSE. 
 &END 
   0.227165272742E+01   1   1   1   1
  -0.131707540073E+00   1   2   1   1
   0.456401613164E+00   2   2   1   1
   0.133152448963E+00   1   3   1   1
  -0.202640879319E-01   2   3   1   1
   0.467842664027E+00   3   3   1   1
   0.346532829584E+00   4   4   1   1
   0.346532829584E+00   5   5   1   1
   0.237896829194E-02   1   6   1   1
  -0.370033660500E-01   2   6   1   1
  -0.287299947801E-01   3   6   1   1
   0.225448297380E+00   6   6   1   1
   0.123901559941E+00   1   7   1   1
  -0.359691862925E-01   2   7   1   1
   0.181998626539E+00   3   7   1   1
  -0.734806962066E-02   6   7   1   1
   0.385071634449E+00   7   7   1   1
  -0.181332067024E+00   5   8   1   1
   0.509902870383E+00   8   8   1   1
  -0.181332067024E+00   4   9   1   1
   0.509902870383E+00   9   9   1   1
  -0.974558459922E-01   1  10   1   1
   0.142315180138E+00   2  10   1   1
   0.271646169898E-01   3  10   1   1
   0.300154664866E-02   6  10   1   1
   0.249822080124E-01   7  10   1   1
   0.450426353548E+00  10  10   1   1
   0.844599887967E-02   5  11   1   1
  -0.156608450441E-01   8  11   1   1
   0.414136361094E+00  11  11   1   1
   0.844599887967E-02   4  12   1   1
  -0.156608450441E-01   9  12   1   1
   0.414136361094E+00  12  12   1   1
   0.412810747148E+00  13  13   1   1
   0.412810747148E+00  14  14   1   1
  -0.137205125785E-01   1  15   1   1
  -0.328003330696E-01   2  15   1   1
  -0.238454704902E-01   3  15   1   1
   0.633013781351E-01   6  15   1   1
  -0.818837199688E-02   7  15   1   1
   0.447681112614E-01  10  15   1   1
   0.346539670882E+00  15  15   1   1
  -0.634932515960E-01   1  16   1   1
   0.674965076419E-01   2  16   1   1
   0.208329718199E-01   3  16   1   1
  -0.165862832140E-01   6  16   1   1
   0.219148490756E-01   7  16   1   1
   0.103138419313E+00  10  16   1   1
  -0.514580270645E-01  15  16   1   1
   0.431620684794E+00  16  16   1   1
  -0.117599236875E-01   5  17   1   1
   0.356661194182E-01   8  17   1   1
  -0.671154712680E-02  11  17   1   1
   0.373307632737E+00  17  17   1   1
  -0.117599236875E-01   4  18   1   1
   0.356661194182E-01   9  18   1   1
  -0.671154712680E-02  12  18   1   1
   0.373307632737E+00  18  18   1   1
  -0.239858410328E-01   1  19   1   1
   0.297480107799E-02   2  19   1   1
   0.139728220495E-01   3  19   1   1
   0.103125648468E-01   6  19   1   1
   0.310859210270E-01   7  19   1   1
   0.696613634789E-01  10  19   1   1
   0.436616450803E-01  15  19   1   1
   0.784368145622E-01  16  19   1   1
   0.448541019912E+00  19  19   1   1
   0.139736021340E-01   1   2   1   2
   0.590844669013E-02   2   2   1   2
  -0.925348886867E-02   1   3   1   2
   0.331040440340E-02   2   3   1   2
  -0.867843061903E-02   3   3   1   2
  -0.150051731032E-02   4   4   1   2
  -0.150051731032E-02   5   5   1   2
  -0.839139771594E-03   1   6   1   2
  -0.185944451200E-02   2   6   1   2
  -0.698585721665E-03   3   6   1   2
   0.845272665533E-03   6   6   1   2
  -0.782912449634E-02   1   7   1   2
   0.116137093085E-02   2   7   1   2
  -0.647551248857E-02   3   7   1   2
   0.977945767170E-03   6   7   1   2
  -0.728544384808E-02   7   7   1   2
   0.273873276363E-02   5   8   1   2
  -0.575920317576E-02   8   8   1   2
   0.273873276363E-02   4   9   1   2
  -0.575920317576E-02   9   9   1   2
   0.130477699544E-01   1  10   1   2
  -0.447873731156E-03   2  10   1   2
  -0.219073259520E-02   3  10   1   2
  -0.463231659485E-03   6  10   1   2
  -0.170259393583E-02   7  10   1   2
  -0.161998460891E-03  10  10   1   2
   0.329022114581E-02   5  11   1   2
  -0.295564674619E-02   8  11   1   2
   0.561953608337E-03  11  11   1   2
   0.329022114581E-02   4  12   1   2
  -0.295564674619E-02   9  12   1   2
   0.561953608338E-03  12  12   1   2
  -0.819688216458E-03  13  13   1   2
  -0.819688216458E-03  14  14   1   2
   0.274951474851E-03   1  15   1   2
  -0.286789882648E-02   2  15   1   2
  -0.189810183213E-02   3  15   1   2
   0.870502170131E-03   6  15   1   2
  -0.677268670852E-03   7  15   1   2
  -0.264180159885E-02  10  15   1   2
   0.643595143666E-03  15  15   1   2
   0.929490728313E-02   1  16   1   2
  -0.548447651839E-03   2  16   1   2
   0.868223504203E-04   3  16   1   2
   0.124146722535E-02   6  16   1   2
  -0.187399238285E-03   7  16   1   2
   0.157223033157E-02  10  16   1   2
   0.233953040608E-02  15  16   1   2
   0.396511663592E-02  16  16   1   2
   0.309610609048E-03   5  17   1   2
  -0.747642357677E-03   8  17   1   2
   0.277472264915E-02  11  17   1   2
   0.640620419160E-02  17  17   1   2
   0.309610609048E-03   4  18   1   2
  -0.747642357677E-03   9  18   1   2
   0.277472264915E-02  12  18   1   2
   0.640620419160E-02  18  18   1   2
   0.610777907663E-02   1  19   1   2
  -0.333365445853E-02   2  19   1   2
  -0.211108284902E-02   3  19   1   2
   0.139088512489E-02   6  19   1   2
  -0.173980898621E-02   7  19   1   2
  -0.318021571121E-02  10  19   1   2
   0.329223403285E-02  15  19   1   2
  -0.218660217144E-02  16  19   1   2
   0.503629712358E-02  19  19   1   2
   0.553088643743E+00   2   2   2   2
   0.128256302870E-01   1   3   2   2
   0.559803252277E-01   2   3   2   2
   0.270698836087E+00   3   3   2   2
   0.268543375742E+00   4   4   2   2
   0.268543375742E+00   5   5   2   2
  -0.284697230345E-02   1   6   2   2
  -0.813425699684E-01   2   6   2   2
  -0.415873062401E-01   3   6   2   2
   0.241469729720E+00   6   6   2   2
   0.122775490520E-01   1   7   2   2
  -0.152593147040E-01   2   7   2   2
   0.500301570688E-01   3   7   2   2
   0.175378973423E-01   6   7   2   2
   0.220865373849E+00   7   7   2   2
  -0.733040010725E-01   5   8   2   2
   0.302585904288E+00   8   8   2   2
  -0.733040010725E-01   4   9   2   2
   0.302585904288E+00   9   9   2   2
   0.111440456517E-01   1  10   2   2
   0.209059595865E-01   2  10   2   2
  -0.244998203009E-01   3  10   2   2
   0.569332627191E-02   6  10   2   2
   0.256143121956E-02   7  10   2   2
   0.394686964953E+00  10  10   2   2
   0.619873803362E-01   5  11   2   2
  -0.391567478777E-01   8  11   2   2
   0.368790650365E+00  11  11   2   2
   0.619873803362E-01   4  12   2   2
  -0.391567478777E-01   9  12   2   2
   0.368790650365E+00  12  12   2   2
   0.318822523691E+00  13  13   2   2
   0.318822523691E+00  14  14   2   2
  -0.478234924724E-02   1  15   2   2
  -0.890266484137E-01   2  15   2   2
  -0.428301941104E-01   3  15   2   2
   0.734760024455E-01   6  15   2   2
  -0.101334356844E-01   7  15   2   2
  -0.234235239545E-01  10  15   2   2
   0.348578670983E+00  15  15   2   2
   0.937946640936E-02   1  16   2   2
  -0.497280509621E-01   2  16   2   2
  -0.161961122639E-01   3  16   2   2
   0.521342500489E-01   6  16   2   2
   0.102488646210E-01   7  16   2   2
   0.951502536924E-01  10  16   2   2
   0.642428293639E-01  15  16   2   2
   0.518632604837E+00  16  16   2   2
   0.137396743613E-01   5  17   2   2
   0.314672978370E-03   8  17   2   2
   0.851264061228E-01  11  17   2   2
   0.574160696872E+00  17  17   2   2
   0.137396743613E-01   4  18   2   2
   0.314672978370E-03   9  18   2   2
   0.851264061228E-01  12  18   2   2
   0.574160696872E+00  18  18   2   2
   0.673648097949E-02   1  19   2   2
  -0.516416990328E-01   2  19   2   2
  -0.138106519386E-01   3  19   2   2
   0.218107073934E-01   6  19   2   2
   0.171782072997E-02   7  19   2   2
  -0.371265894736E-01  10  19   2   2
   0.952251232618E-01  15  19   2   2
  -0.108717967954E-01  16  19   2   2
   0.571427722640E+00  19  19   2   2
   0.166891568603E-01   1   3   1   3
   0.148403587951E-02   2   3   1   3
  -0.481846282891E-02   3   3   1   3
   0.310244553140E-03   4   4   1   3
   0.310244553140E-03   5   5   1   3
  -0.794447291371E-03   1   6   1   3
  -0.266264241032E-02   2   6   1   3
  -0.145989246446E-02   3   6   1   3
   0.119988819079E-02   6   6   1   3
   0.159809361438E-01   1   7   1   3
  -0.630618519783E-03   2   7   1   3
  -0.199719746551E-02   3   7   1   3
   0.785776790277E-03   6   7   1   3
  -0.296395921637E-02   7   7   1   3
  -0.140045551294E-02   5   8   1   3
   0.403385365042E-02   8   8   1   3
  -0.140045551294E-02   4   9   1   3
   0.403385365042E-02   9   9   1   3
  -0.252080234900E-02   1  10   1   3
   0.539209107244E-02   2  10   1   3
  -0.285458815428E-02   3  10   1   3
  -0.143049506187E-02   6  10   1   3
  -0.161634127425E-02   7  10   1   3
   0.779649851508E-02  10  10   1   3
   0.487112573728E-02   5  11   1   3
  -0.507025089566E-02   8  11   1   3
   0.168780518653E-02  11  11   1   3
   0.487112573728E-02   4  12   1   3
  -0.507025089566E-02   9  12   1   3
   0.168780518653E-02  12  12   1   3
   0.309564617209E-03  13  13   1   3
   0.309564617209E-03  14  14   1   3
  -0.305170649936E-02   1  15   1   3
  -0.352884334189E-02   2  15   1   3
  -0.423660298421E-02   3  15   1   3
   0.138428099165E-02   6  15   1   3
  -0.249650149863E-02   7  15   1   3
  -0.409038533724E-02  10  15   1   3
   0.169403523153E-02  15  15   1   3
  -0.128674812015E-02   1  16   1   3
   0.388350530941E-02   2  16   1   3
   0.889818393062E-03   3  16   1   3
   0.729223025931E-03   6  16   1   3
   0.740398575803E-03   7  16   1   3
   0.768570298037E-02  10  16   1   3
   0.168780630460E-02  15  16   1   3
   0.929200094434E-02  16  16   1   3
  -0.681236043214E-03   5  17   1   3
   0.133220388907E-02   8  17   1   3
   0.299883544232E-02  11  17   1   3
   0.822218480132E-02  17  17   1   3
  -0.681236043214E-03   4  18   1   3
   0.133220388907E-02   9  18   1   3
   0.299883544232E-02  12  18   1   3
   0.822218480132E-02  18  18   1   3
   0.355600085785E-02   1  19   1   3
  -0.112937826674E-02   2  19   1   3
  -0.584352117095E-03   3  19   1   3
   0.115715308720E-02   6  19   1   3
   0.295260304472E-03   7  19   1   3
   0.195512499147E-02  10  19   1   3
   0.333389947107E-02  15  19   1   3
   0.131184056760E-02  16  19   1   3
   0.117277362073E-01  19  19   1   3
   0.181642551558E-01   2   3   2   3
  -0.199030836394E-01   3   3   2   3
  -0.855503067078E-02   4   4   2   3
  -0.855503067078E-02   5   5   2   3
  -0.823722933463E-03   1   6   2   3
  -0.178280449719E-01   2   6   2   3
  -0.610540594382E-02   3   6   2   3
   0.689232057070E-02   6   6   2   3
   0.145441453788E-02   1   7   2   3
   0.269622782985E-03   2   7   2   3
  -0.730785911293E-02   3   7   2   3
   0.391226155260E-02   6   7   2   3
  -0.161885398736E-01   7   7   2   3
   0.599027573935E-02   5   8   2   3
  -0.103479358952E-01   8   8   2   3
   0.599027573935E-02   4   9   2   3
  -0.103479358952E-01   9   9   2   3
   0.382040526255E-02   1  10   2   3
  -0.129856369085E-01   2  10   2   3
  -0.745249601302E-02   3  10   2   3
  -0.159229886747E-02   6  10   2   3
   0.328584858098E-04   7  10   2   3
   0.205385261613E-01  10  10   2   3
   0.148187671030E-01   5  11   2   3
  -0.854727978989E-02   8  11   2   3
   0.432444864223E-02  11  11   2   3
   0.148187671030E-01   4  12   2   3
  -0.854727978989E-02   9  12   2   3
   0.432444864223E-02  12  12   2   3
  -0.127285380429E-01  13  13   2   3
  -0.127285380429E-01  14  14   2   3
  -0.132090930377E-02   1  15   2   3
  -0.211421808373E-01   2  15   2   3
  -0.722545505888E-02   3  15   2   3
   0.745944867539E-02   6  15   2   3
  -0.225183163318E-02   7  15   2   3
  -0.181280939521E-01  10  15   2   3
   0.159272487835E-01  15  15   2   3
   0.326549698155E-02   1  16   2   3
  -0.205484914797E-01   2  16   2   3
  -0.792161228077E-02   3  16   2   3
   0.166833640073E-01   6  16   2   3
   0.128988787655E-02   7  16   2   3
   0.171126825522E-01  10  16   2   3
   0.257262439576E-01  15  16   2   3
   0.518593594125E-01  16  16   2   3
   0.549216145378E-02   5  17   2   3
  -0.355685096646E-02   8  17   2   3
   0.252149028950E-01  11  17   2   3
   0.702939623751E-01  17  17   2   3
   0.549216145378E-02   4  18   2   3
  -0.355685096646E-02   9  18   2   3
   0.252149028950E-01  12  18   2   3
   0.702939623751E-01  18  18   2   3
   0.165832253133E-02   1  19   2   3
  -0.115316211590E-01   2  19   2   3
  -0.302988367925E-02   3  19   2   3
   0.327157446816E-02   6  19   2   3
  -0.627582520162E-03   7  19   2   3
  -0.146516806286E-01  10  19   2   3
   0.173543594784E-01  15  19   2   3
  -0.129745359448E-01  16  19   2   3
   0.676279351420E-01  19  19   2   3
   0.402668538463E+00   3   3   3   3
   0.283174585213E+00   4   4   3   3
   0.283174585213E+00   5   5   3   3
   0.168051520988E-02   1   6   3   3
  -0.109379384532E-01   2   6   3   3
   0.411109881015E-02   3   6   3   3
   0.203455268682E+00   6   6   3   3
  -0.486223249932E-02   1   7   3   3
  -0.147069752552E-01   2   7   3   3
   0.930021195007E-01   3   7   3   3
  -0.173810849199E-01   6   7   3   3
   0.317743182871E+00   7   7   3   3
  -0.853294308602E-01   5   8   3   3
   0.316338167649E+00   8   8   3   3
  -0.853294308602E-01   4   9   3   3
   0.316338167649E+00   9   9   3   3
  -0.129044841401E-01   1  10   3   3
   0.458022183629E-01   2  10   3   3
   0.419991085443E-01   3  10   3   3
   0.206379120188E-01   6  10   3   3
   0.187952807681E-01   7  10   3   3
   0.281700974126E+00  10  10   3   3
  -0.417851775586E-01   5  11   3   3
   0.256781666416E-01   8  11   3   3
   0.332707232954E+00  11  11   3   3
  -0.417851775586E-01   4  12   3   3
   0.256781666416E-01   9  12   3   3
   0.332707232954E+00  12  12   3   3
   0.326676263050E+00  13  13   3   3
   0.326676263050E+00  14  14   3   3
   0.853151906921E-03   1  15   3   3
  -0.682387510868E-02   2  15   3   3
   0.287625425799E-01   3  15   3   3
   0.385438992096E-01   6  15   3   3
   0.209673883290E-01   7  15   3   3
   0.628436368376E-01  10  15   3   3
   0.284709770095E+00  15  15   3   3
  -0.810986996918E-02   1  16   3   3
   0.726997855668E-02   2  16   3   3
  -0.104798998897E-01   3  16   3   3
  -0.197094904491E-01   6  16   3   3
   0.226802295199E-02   7  16   3   3
   0.232336642781E-02  10  16   3   3
  -0.527908094157E-01  15  16   3   3
   0.291489698658E+00  16  16   3   3
   0.694480416096E-02   5  17   3   3
   0.420210002808E-02   8  17   3   3
  -0.269692306462E-01  11  17   3   3
   0.257963094179E+00  17  17   3   3
   0.694480416096E-02   4  18   3   3
   0.420210002808E-02   9  18   3   3
  -0.269692306462E-01  12  18   3   3
   0.257963094179E+00  18  18   3   3
  -0.781846401510E-02   1  19   3   3
  -0.267895547248E-02   2  19   3   3
  -0.135750053341E-02   3  19   3   3
   0.489379720982E-04   6  19   3   3
   0.577863457326E-02   7  19   3   3
   0.531079768791E-02  10  19   3   3
   0.326935781619E-02  15  19   3   3
   0.389899247070E-01  16  19   3   3
   0.271044592531E+00  19  19   3   3
   0.340712171599E-02   1   4   1   4
   0.344285890212E-02   2   4   1   4
  -0.457966494092E-02   3   4   1   4
   0.141719500061E-02   4   6   1   4
  -0.159509531194E-02   4   7   1   4
  -0.809521182938E-02   1   9   1   4
  -0.385108573334E-02   2   9   1   4
   0.495372527422E-02   3   9   1   4
   0.866057658877E-05   6   9   1   4
   0.514387937364E-02   7   9   1   4
   0.270128250428E-02   4  10   1   4
  -0.437486576743E-02   9  10   1   4
   0.679083037896E-03   1  12   1   4
   0.328460965232E-02   2  12   1   4
   0.334394549118E-02   3  12   1   4
   0.162912946217E-03   6  12   1   4
   0.148343569148E-02   7  12   1   4
   0.299778021944E-02  10  12   1   4
   0.436607564250E-02   5  13   1   4
  -0.430279563387E-02   8  13   1   4
   0.450393002041E-03  11  13   1   4
  -0.436607564250E-02   4  14   1   4
   0.430279563387E-02   9  14   1   4
  -0.450393002041E-03  12  14   1   4
   0.210503262372E-02   4  15   1   4
  -0.262252772483E-02   9  15   1   4
   0.683439098834E-03  12  15   1   4
  -0.273601167041E-03   4  16   1   4
  -0.362492939821E-03   9  16   1   4
   0.273915743792E-02  12  16   1   4
  -0.876279489906E-03  13  17   1   4
  -0.151435528820E-02   1  18   1   4
   0.469874451666E-03   2  18   1   4
   0.273955761190E-03   3  18   1   4
  -0.110442045184E-02   6  18   1   4
   0.796219882415E-05   7  18   1   4
  -0.187610225421E-02  10  18   1   4
   0.876279489906E-03  14  18   1   4
  -0.182963080494E-02  15  18   1   4
  -0.442640221984E-03  16  18   1   4
   0.694990309095E-03   4  19   1   4
  -0.151248545063E-02   9  19   1   4
   0.180204321273E-02  12  19   1   4
  -0.156183607917E-02  18  19   1   4
   0.202936100425E-01   2   4   2   4
  -0.175203486860E-01   3   4   2   4
   0.134360229688E-01   4   6   2   4
   0.406462007825E-02   4   7   2   4
  -0.720940086532E-02   1   9   2   4
  -0.124876516739E-01   2   9   2   4
   0.105203854311E-01   3   9   2   4
   0.596994880379E-02   6   9   2   4
   0.168437444156E-01   7   9   2   4
   0.909510168757E-02   4  10   2   4
  -0.177467140516E-01   9  10   2   4
   0.130488727431E-02   1  12   2   4
   0.258450104503E-01   2  12   2   4
   0.118179960003E-01   3  12   2   4
   0.323022836916E-02   6  12   2   4
   0.251229945995E-02   7  12   2   4
   0.886355867047E-02  10  12   2   4
   0.226857979579E-01   5  13   2   4
  -0.132861064979E-01   8  13   2   4
   0.793641469694E-02  11  13   2   4
  -0.226857979579E-01   4  14   2   4
   0.132861064979E-01   9  14   2   4
  -0.793641469694E-02  12  14   2   4
   0.978050562560E-02   4  15   2   4
  -0.938568223895E-02   9  15   2   4
   0.441829018605E-02  12  15   2   4
  -0.318786097445E-03   4  16   2   4
  -0.174666075320E-02   9  16   2   4
   0.155555794360E-01  12  16   2   4
  -0.438345697284E-02  13  17   2   4
  -0.120418621807E-02   1  18   2   4
   0.148041351677E-01   2  18   2   4
   0.546826271346E-02   3  18   2   4
  -0.120978418185E-01   6  18   2   4
  -0.113636947851E-02   7  18   2   4
  -0.121401221557E-01  10  18   2   4
   0.438345697284E-02  14  18   2   4
  -0.123290670534E-01  15  18   2   4
  -0.676031526494E-02  16  18   2   4
   0.223711730865E-02   4  19   2   4
  -0.441508213488E-02   9  19   2   4
   0.649600359167E-02  12  19   2   4
  -0.650605933227E-02  18  19   2   4
   0.392476950370E-01   3   4   3   4
  -0.130504206297E-01   4   6   3   4
  -0.590858825863E-02   4   7   3   4
   0.951176145754E-02   1   9   3   4
   0.111687161202E-01   2   9   3   4
  -0.222609742804E-01   3   9   3   4
  -0.238460128433E-02   6   9   3   4
  -0.320442477337E-01   7   9   3   4
  -0.961236993956E-02   4  10   3   4
   0.137750559559E-01   9  10   3   4
   0.194014180941E-03   1  12   3   4
  -0.790867509428E-02   2  12   3   4
  -0.329959162592E-01   3  12   3   4
  -0.576916386611E-02   6  12   3   4
  -0.661400255158E-02   7  12   3   4
  -0.116608649741E-01  10  12   3   4
  -0.321161253679E-01   5  13   3   4
   0.188020390673E-01   8  13   3   4
   0.709014176473E-02  11  13   3   4
   0.321161253679E-01   4  14   3   4
  -0.188020390673E-01   9  14   3   4
  -0.709014176473E-02  12  14   3   4
  -0.109674349287E-01   4  15   3   4
   0.128680687443E-01   9  15   3   4
  -0.831758759106E-02  12  15   3   4
   0.928619599639E-02   4  16   3   4
  -0.310720720022E-02   9  16   3   4
  -0.903287796160E-02  12  16   3   4
   0.265839830844E-02  13  17   3   4
   0.138775277168E-02   1  18   3   4
   0.119177836585E-02   2  18   3   4
   0.569301919529E-02   3  18   3   4
   0.644412632485E-02   6  18   3   4
   0.130943289325E-02   7  18   3   4
   0.844829787979E-02  10  18   3   4
  -0.265839830844E-02  14  18   3   4
   0.850427436092E-02  15  18   3   4
  -0.389344852582E-03  16  18   3   4
   0.105229868904E-02   4  19   3   4
   0.188463081698E-02   9  19   3   4
  -0.720619850395E-02  12  19   3   4
   0.373844017882E-02  18  19   3   4
   0.270374336903E+00   4   4   4   4
   0.241391297393E+00   5   5   4   4
   0.300617837427E-03   1   6   4   4
  -0.647876138366E-02   2   6   4   4
  -0.118298656078E-01   3   6   4   4
   0.199348090901E+00   6   6   4   4
   0.476680577714E-03   1   7   4   4
  -0.785345581731E-02   2   7   4   4
   0.432436933497E-01   3   7   4   4
   0.429790432653E-02   6   7   4   4
   0.241630817593E+00   7   7   4   4
  -0.515678440758E-01   5   8   4   4
   0.257957007611E+00   8   8   4   4
  -0.552492728648E-01   4   9   4   4
   0.281877417479E+00   9   9   4   4
  -0.112759834059E-02   1  10   4   4
   0.353322670784E-01   2  10   4   4
   0.292041975902E-02   3  10   4   4
   0.964797588306E-02   6  10   4   4
   0.273074394131E-02   7  10   4   4
   0.255343349992E+00  10  10   4   4
  -0.158833986328E-02   5  11   4   4
   0.242130826430E-03   8  11   4   4
   0.270385768834E+00  11  11   4   4
  -0.267096372611E-02   4  12   4   4
   0.101425770734E-02   9  12   4   4
   0.294621657186E+00  12  12   4   4
   0.295359420583E+00  13  13   4   4
  -0.107973946131E-02   1  14   4   4
  -0.106542189808E-01   2  14   4   4
   0.150604288081E-01   3  14   4   4
  -0.793395126045E-02   6  14   4   4
  -0.412475829679E-03   7  14   4   4
  -0.915912233551E-02  10  14   4   4
   0.295359420583E+00  14  14   4   4
   0.623329166962E-03   1  15   4   4
  -0.343679203920E-02   2  15   4   4
  -0.739128132331E-02   3  15   4   4
   0.288328043424E-01   6  15   4   4
   0.184411239096E-04   7  15   4   4
   0.291081078786E-01  10  15   4   4
  -0.108802455170E-01  14  15   4   4
   0.242421827845E+00  15  15   4   4
  -0.108926507192E-02   1  16   4   4
   0.972842426368E-02   2  16   4   4
   0.846879614752E-02   3  16   4   4
  -0.649963765695E-02   6  16   4   4
   0.190050952505E-02   7  16   4   4
   0.133465731901E-01  10  16   4   4
   0.552479608798E-02  14  16   4   4
  -0.202354726857E-01  15  16   4   4
   0.263971087213E+00  16  16   4   4
  -0.166100004600E-02   5  17   4   4
   0.578681774970E-02   8  17   4   4
  -0.545180823000E-02  11  17   4   4
   0.249999316919E+00  17  17   4   4
  -0.466217475688E-02   4  18   4   4
   0.709986432601E-02   9  18   4   4
  -0.114923592796E-01  12  18   4   4
   0.259584605088E+00  18  18   4   4
  -0.230690933845E-03   1  19   4   4
  -0.241629582383E-02   2  19   4   4
   0.702475288521E-03   3  19   4   4
   0.342683631601E-02   6  19   4   4
   0.205133615363E-02   7  19   4   4
   0.618539733978E-02  10  19   4   4
   0.528641377182E-04  14  19   4   4
   0.147762674619E-01  15  19   4   4
   0.207767386433E-01  16  19   4   4
   0.255881616799E+00  19  19   4   4
   0.340712171599E-02   1   5   1   5
   0.344285890212E-02   2   5   1   5
  -0.457966494092E-02   3   5   1   5
   0.141719500061E-02   5   6   1   5
  -0.159509531194E-02   5   7   1   5
  -0.809521182938E-02   1   8   1   5
  -0.385108573334E-02   2   8   1   5
   0.495372527422E-02   3   8   1   5
   0.866057658878E-05   6   8   1   5
   0.514387937364E-02   7   8   1   5
   0.270128250428E-02   5  10   1   5
  -0.437486576743E-02   8  10   1   5
   0.679083037896E-03   1  11   1   5
   0.328460965232E-02   2  11   1   5
   0.334394549118E-02   3  11   1   5
   0.162912946217E-03   6  11   1   5
   0.148343569148E-02   7  11   1   5
   0.299778021944E-02  10  11   1   5
   0.436607564250E-02   4  13   1   5
  -0.430279563387E-02   9  13   1   5
   0.450393002041E-03  12  13   1   5
   0.436607564250E-02   5  14   1   5
  -0.430279563387E-02   8  14   1   5
   0.450393002041E-03  11  14   1   5
   0.210503262372E-02   5  15   1   5
  -0.262252772483E-02   8  15   1   5
   0.683439098834E-03  11  15   1   5
  -0.273601167041E-03   5  16   1   5
  -0.362492939821E-03   8  16   1   5
   0.273915743792E-02  11  16   1   5
  -0.151435528820E-02   1  17   1   5
   0.469874451666E-03   2  17   1   5
   0.273955761190E-03   3  17   1   5
  -0.110442045184E-02   6  17   1   5
   0.796219882415E-05   7  17   1   5
  -0.187610225421E-02  10  17   1   5
  -0.876279489906E-03  14  17   1   5
  -0.182963080494E-02  15  17   1   5
  -0.442640221984E-03  16  17   1   5
  -0.876279489906E-03  13  18   1   5
   0.694990309095E-03   5  19   1   5
  -0.151248545063E-02   8  19   1   5
   0.180204321273E-02  11  19   1   5
  -0.156183607917E-02  17  19   1   5
   0.202936100425E-01   2   5   2   5
  -0.175203486860E-01   3   5   2   5
   0.134360229688E-01   5   6   2   5
   0.406462007825E-02   5   7   2   5
  -0.720940086532E-02   1   8   2   5
  -0.124876516739E-01   2   8   2   5
   0.105203854311E-01   3   8   2   5
   0.596994880379E-02   6   8   2   5
   0.168437444156E-01   7   8   2   5
   0.909510168757E-02   5  10   2   5
  -0.177467140516E-01   8  10   2   5
   0.130488727431E-02   1  11   2   5
   0.258450104503E-01   2  11   2   5
   0.118179960003E-01   3  11   2   5
   0.323022836916E-02   6  11   2   5
   0.251229945995E-02   7  11   2   5
   0.886355867047E-02  10  11   2   5
   0.226857979579E-01   4  13   2   5
  -0.132861064979E-01   9  13   2   5
   0.793641469694E-02  12  13   2   5
   0.226857979579E-01   5  14   2   5
  -0.132861064979E-01   8  14   2   5
   0.793641469694E-02  11  14   2   5
   0.978050562560E-02   5  15   2   5
  -0.938568223895E-02   8  15   2   5
   0.441829018605E-02  11  15   2   5
  -0.318786097445E-03   5  16   2   5
  -0.174666075320E-02   8  16   2   5
   0.155555794360E-01  11  16   2   5
  -0.120418621807E-02   1  17   2   5
   0.148041351677E-01   2  17   2   5
   0.546826271346E-02   3  17   2   5
  -0.120978418185E-01   6  17   2   5
  -0.113636947851E-02   7  17   2   5
  -0.121401221557E-01  10  17   2   5
  -0.438345697284E-02  14  17   2   5
  -0.123290670534E-01  15  17   2   5
  -0.676031526494E-02  16  17   2   5
  -0.438345697284E-02  13  18   2   5
   0.223711730865E-02   5  19   2   5
  -0.441508213488E-02   8  19   2   5
   0.649600359167E-02  11  19   2   5
  -0.650605933227E-02  17  19   2   5
   0.392476950370E-01   3   5   3   5
  -0.130504206297E-01   5   6   3   5
  -0.590858825863E-02   5   7   3   5
   0.951176145754E-02   1   8   3   5
   0.111687161202E-01   2   8   3   5
  -0.222609742804E-01   3   8   3   5
  -0.238460128433E-02   6   8   3   5
  -0.320442477337E-01   7   8   3   5
  -0.961236993956E-02   5  10   3   5
   0.137750559559E-01   8  10   3   5
   0.194014180941E-03   1  11   3   5
  -0.790867509428E-02   2  11   3   5
  -0.329959162592E-01   3  11   3   5
  -0.576916386611E-02   6  11   3   5
  -0.661400255158E-02   7  11   3   5
  -0.116608649741E-01  10  11   3   5
  -0.321161253679E-01   4  13   3   5
   0.188020390673E-01   9  13   3   5
   0.709014176473E-02  12  13   3   5
  -0.321161253679E-01   5  14   3   5
   0.188020390673E-01   8  14   3   5
   0.709014176473E-02  11  14   3   5
  -0.109674349287E-01   5  15   3   5
   0.128680687443E-01   8  15   3   5
  -0.831758759106E-02  11  15   3   5
   0.928619599639E-02   5  16   3   5
  -0.310720720022E-02   8  16   3   5
  -0.903287796160E-02  11  16   3   5
   0.138775277168E-02   1  17   3   5
   0.119177836585E-02   2  17   3   5
   0.569301919529E-02   3  17   3   5
   0.644412632485E-02   6  17   3   5
   0.130943289325E-02   7  17   3   5
   0.844829787979E-02  10  17   3   5
   0.265839830844E-02  14  17   3   5
   0.850427436092E-02  15  17   3   5
  -0.389344852582E-03  16  17   3   5
   0.265839830844E-02  13  18   3   5
   0.105229868904E-02   5  19   3   5
   0.188463081698E-02   8  19   3   5
  -0.720619850395E-02  11  19   3   5
   0.373844017882E-02  17  19   3   5
   0.144915197551E-01   4   5   4   5
  -0.184071439449E-02   4   8   4   5
  -0.184071439449E-02   5   9   4   5
   0.119602049340E-01   8   9   4   5
  -0.541311931415E-03   4  11   4   5
   0.386063440454E-03   9  11   4   5
  -0.541311931415E-03   5  12   4   5
   0.386063440454E-03   8  12   4   5
   0.121179441759E-01  11  12   4   5
   0.107973946131E-02   1  13   4   5
   0.106542189808E-01   2  13   4   5
  -0.150604288081E-01   3  13   4   5
   0.793395126045E-02   6  13   4   5
   0.412475829679E-03   7  13   4   5
   0.915912233551E-02  10  13   4   5
   0.108802455170E-01  13  15   4   5
  -0.552479608798E-02  13  16   4   5
  -0.150058735544E-02   4  17   4   5
   0.656523288159E-03   9  17   4   5
  -0.302027552479E-02  12  17   4   5
  -0.150058735544E-02   5  18   4   5
   0.656523288159E-03   8  18   4   5
  -0.302027552479E-02  11  18   4   5
   0.479264408431E-02  17  18   4   5
  -0.528641377181E-04  13  19   4   5
   0.270374336903E+00   5   5   5   5
   0.300617837427E-03   1   6   5   5
  -0.647876138366E-02   2   6   5   5
  -0.118298656078E-01   3   6   5   5
   0.199348090901E+00   6   6   5   5
   0.476680577714E-03   1   7   5   5
  -0.785345581731E-02   2   7   5   5
   0.432436933497E-01   3   7   5   5
   0.429790432653E-02   6   7   5   5
   0.241630817593E+00   7   7   5   5
  -0.552492728648E-01   5   8   5   5
   0.281877417479E+00   8   8   5   5
  -0.515678440758E-01   4   9   5   5
   0.257957007611E+00   9   9   5   5
  -0.112759834059E-02   1  10   5   5
   0.353322670784E-01   2  10   5   5
   0.292041975902E-02   3  10   5   5
   0.964797588306E-02   6  10   5   5
   0.273074394131E-02   7  10   5   5
   0.255343349992E+00  10  10   5   5
  -0.267096372611E-02   5  11   5   5
   0.101425770734E-02   8  11   5   5
   0.294621657186E+00  11  11   5   5
  -0.158833986328E-02   4  12   5   5
   0.242130826430E-03   9  12   5   5
   0.270385768834E+00  12  12   5   5
   0.295359420583E+00  13  13   5   5
   0.107973946131E-02   1  14   5   5
   0.106542189808E-01   2  14   5   5
  -0.150604288081E-01   3  14   5   5
   0.793395126045E-02   6  14   5   5
   0.412475829679E-03   7  14   5   5
   0.915912233551E-02  10  14   5   5
   0.295359420583E+00  14  14   5   5
   0.623329166962E-03   1  15   5   5
  -0.343679203920E-02   2  15   5   5
  -0.739128132331E-02   3  15   5   5
   0.288328043424E-01   6  15   5   5
   0.184411239094E-04   7  15   5   5
   0.291081078786E-01  10  15   5   5
   0.108802455170E-01  14  15   5   5
   0.242421827845E+00  15  15   5   5
  -0.108926507192E-02   1  16   5   5
   0.972842426368E-02   2  16   5   5
   0.846879614752E-02   3  16   5   5
  -0.649963765695E-02   6  16   5   5