 &FCI NORB= 23,NELEC=10,MS2= 0,
  ORBSYM=1,1,1,1,1,1,1,1,2,2,2,3,3,3,4,4,5,5,5,6,6,7,7,
  ISYM=1
 &END
        5.97199420292  1  1  1  1
      -0.616579661877  2  1  1  1
       0.103367633719  2  1  2  1
        1.45637626723  2  2  1  1
     -0.0288562185751  2  2  2  1
        1.02124840718  2  2  2  2
       0.167299238094  3  1  1  1
     -0.0284464827411  3  1  2  1
     0.00743905624677  3  1  2  2
     0.00783529713089  3  1  3  1
      -0.228902546540  3  2  1  1
     0.00801345192037  3  2  2  1
      -0.114912285149  3  2  2  2
    -0.00209371064031  3  2  3  1
      0.0236507795921  3  2  3  2
       0.428488043391  3  3  1  1
    -0.00222985351608  3  3  2  1
       0.397448136314  3  3  2  2
    0.000556438182434  3  3  3  1
    -0.00897121063521  3  3  3  2
       0.316283043857  3  3  3  3
    4.88387114657E-05  4  1  4  1
    0.000593145874687  4  2  4  1
      0.0336167755413  4  2  4  2
   -1.27830630516E-05  4  3  4  1
      0.0109655944945  4  3  4  2
      0.0128229513072  4  3  4  3
       0.668627544605  4  4  1  1
   -9.97296573638E-05  4  4  2  1
       0.646157590460  4  4  2  2
   -7.55304504551E-05  4  4  3  1
     -0.0328680951918  4  4  3  2
       0.372919735913  4  4  3  3
    0.000290217067756  4  4  4  1
      0.0280734968566  4  4  4  2
      0.0149218749580  4  4  4  3
       0.607557685239  4  4  4  4
    4.88387114657E-05  5  1  5  1
    0.000593145874687  5  2  5  1
      0.0336167755413  5  2  5  2
   -1.27830630516E-05  5  3  5  1
      0.0109655944945  5  3  5  2
      0.0128229513072  5  3  5  3
   -0.000290217067756  5  4  5  1
     -0.0280734968566  5  4  5  2
     -0.0149218749580  5  4  5  3
      0.0358696768490  5  4  5  4
       0.668627544605  5  5  1  1
   -9.97296573638E-05  5  5  2  1
       0.646157590460  5  5  2  2
   -7.55304504550E-05  5  5  3  1
     -0.0328680951918  5  5  3  2
       0.372919735913  5  5  3  3
   -0.000290217067756  5  5  4  1
     -0.0280734968566  5  5  4  2
     -0.0149218749580  5  5  4  3
       0.535818331541  5  5  4  4
       0.607557685239  5  5  5  5
       0.536717952531  6  1  1  1
     -0.0906871120348  6  1  2  1
      0.0230000943442  6  1  2  2
      0.0249341532907  6  1  3  1
    -0.00639887665873  6  1  3  2
     0.00180265921298  6  1  3  3
    8.04038568594E-05  6  1  4  4
    8.04038568593E-05  6  1  5  5
      0.0799493809104  6  1  6  1
      -0.547701546603  6  2  1  1
      0.0257210381009  6  2  2  1
      -0.197908773540  6  2  2  2
    -0.00674313866121  6  2  3  1
      0.0481569637830  6  2  3  2
     -0.0118768175879  6  2  3  3
     -0.0230643831727  6  2  4  4
     -0.0230643831727  6  2  5  5
     -0.0205634422707  6  2  6  1
       0.121966807335  6  2  6  2
       0.240715806305  6  3  1  1
    -0.00712402376321  6  3  2  1
       0.143163020865  6  3  2  2
     0.00184854291940  6  3  3  1
     -0.0196976129676  6  3  3  2
      0.0292387499413  6  3  3  3
      0.0809905398526  6  3  4  4
      0.0809905398526  6  3  5  5
     0.00572536431314  6  3  6  1
     -0.0348307894370  6  3  6  2
      0.0293244915426  6  3  6  3
    0.000127478269356  6  4  4  1
      0.0291082346756  6  4  4  2
      0.0157386277179  6  4  4  3
      0.0303353618600  6  4  4  4
     -0.0303353618600  6  4  5  5
      0.0354775182250  6  4  6  4
    0.000127478269356  6  5  5  1
      0.0291082346756  6  5  5  2
      0.0157386277179  6  5  5  3
     -0.0303353618600  6  5  5  4
      0.0354775182250  6  5  6  5
        1.13674268159  6  6  1  1
     -0.0234711541563  6  6  2  1
       0.801055521039  6  6  2  2
     0.00605126409453  6  6  3  1
     -0.0729685495992  6  6  3  2
       0.374159504313  6  6  3  3
       0.570683188260  6  6  4  4
       0.570683188260  6  6  5  5
      0.0188437459212  6  6  6  1
      -0.122953600251  6  6  6  2
       0.108153408517  6  6  6  3
       0.667489769423  6  6  6  6
    0.000369837545035  7  1  5  1
     0.00312146387916  7  1  5  2
   -0.000184472566769  7  1  5  3
    -0.00133899496647  7  1  5  4
    0.000180861322486  7  1  6  5
     0.00296156672383  7  1  7  1
     0.00162721923175  7  2  5  1
      0.0365172027452  7  2  5  2
    -0.00228232214520  7  2  5  3
     -0.0178028564535  7  2  5  4
      0.0104725196288  7  2  6  5
      0.0101314884514  7  2  7  1
      0.0866644609548  7  2  7  2
   -0.000427021778435  7  3  5  1
     -0.0149937875470  7  3  5  2
    -0.00685715433321  7  3  5  3
      0.0126002220149  7  3  5  4
     -0.0108217180520  7  3  6  5
    -0.00265623444628  7  3  7  1
     -0.0209987058335  7  3  7  2
     0.00948261137933  7  3  7  3
   -0.000269239047453  7  4  5  1
    -0.00456088501037  7  4  5  2
     0.00496498514322  7  4  5  3
    -0.00172752584282  7  4  5  4
     0.00246252238266  7  4  6  5
    -0.00152264821447  7  4  7  1
     -0.0180777320429  7  4  7  2
     0.00160211920002  7  4  7  3
     0.00823518815914  7  4  7  4
       0.197827891794  7  5  1  1
   -0.000608600033625  7  5  2  1
       0.145301514534  7  5  2  2
    9.15929368250E-05  7  5  3  1
     -0.0287920401467  7  5  3  2
     0.00961828207436  7  5  3  3
   -0.000269239047453  7  5  4  1
    -0.00456088501037  7  5  4  2
     0.00496498514322  7  5  4  3
      0.0475727838922  7  5  4  4
      0.0441177322065  7  5  5  5
    0.000216641043285  7  5  6  1
     -0.0477129663735  7  5  6  2
      0.0221709490630  7  5  6  3
     0.00246252238266  7  5  6  4
      0.0870573083842  7  5  6  6
      0.0535609236345  7  5  7  5
   -0.000899398476776  7  6  5  1
     -0.0146891610827  7  6  5  2
    -0.00342748555825  7  6  5  3
     0.00976471755974  7  6  5  4
    -0.00594225794311  7  6  6  5
    -0.00629762142125  7  6  7  1
     -0.0350646882935  7  6  7  2
      0.0116148062808  7  6  7  3
     0.00363411358406  7  6  7  4
      0.0231975128273  7  6  7  6
        1.23633509646  7  7  1  1
    -0.00427756378934  7  7  2  1
       0.990011273976  7  7  2  2
    0.000766291883371  7  7  3  1
      -0.108501868331  7  7  3  2
       0.394730713035  7  7  3  3
    -0.00109566802997  7  7  4  1
     -0.0309381928285  7  7  4  2
    -0.00364040612799  7  7  4  3
       0.618463969850  7  7  4  4
       0.665626605217  7  7  5  5
     0.00205421919238  7  7  6  1
      -0.180302916177  7  7  6  2
       0.135485073466  7  7  6  3
     -0.0147364301794  7  7  6  4
       0.772102693874  7  7  6  6
       0.161320690324  7  7  7  5
        1.04685359308  7  7  7  7
   -0.000369837545035  8  1  4  1
    -0.00312146387916  8  1  4  2
    0.000184472566769  8  1  4  3
    -0.00133899496647  8  1  4  4
     0.00133899496647  8  1  5  5
   -0.000180861322486  8  1  6  4
     0.00152264821447  8  1  7  5
     0.00662140574488  8  1  7  7
     0.00296156672383  8  1  8  1
    -0.00162721923175  8  2  4  1
     -0.0365172027452  8  2  4  2
     0.00228232214520  8  2  4  3
     -0.0178028564535  8  2  4  4
      0.0178028564535  8  2  5  5
     -0.0104725196288  8  2  6  4
      0.0180777320429  8  2  7  5
      0.0603027047821  8  2  7  7
      0.0101314884514  8  2  8  1
      0.0866644609548  8  2  8  2
    0.000427021778435  8  3  4  1
      0.0149937875470  8  3  4  2
     0.00685715433321  8  3  4  3
      0.0126002220149  8  3  4  4
     -0.0126002220149  8  3  5  5
      0.0108217180520  8  3  6  4
    -0.00160211920002  8  3  7  5
     -0.0176013833276  8  3  7  7
    -0.00265623444628  8  3  8  1
     -0.0209987058335  8  3  8  2
     0.00948261137933  8  3  8  3
      -0.197827891794  8  4  1  1
    0.000608600033625  8  4  2  1
      -0.145301514534  8  4  2  2
   -9.15929368250E-05  8  4  3  1
      0.0287920401467  8  4  3  2
    -0.00961828207436  8  4  3  3
   -0.000269239047453  8  4  4  1
    -0.00456088501037  8  4  4  2
     0.00496498514322  8  4  4  3
     -0.0441177322065  8  4  4  4
     -0.0475727838922  8  4  5  5
   -0.000216641043285  8  4  6  1
      0.0477129663735  8  4  6  2
     -0.0221709490630  8  4  6  3
     0.00246252238266  8  4  6  4
     -0.0870573083842  8  4  6  6
     -0.0370905473163  8  4  7  5
      -0.132904548177  8  4  7  7
     0.00152264821447  8  4  8  1
      0.0180777320429  8  4  8  2
    -0.00160211920002  8  4  8  3
      0.0535609236345  8  4  8  4
    0.000269239047453  8  5  5  1
     0.00456088501037  8  5  5  2
    -0.00496498514322  8  5  5  3
     0.00172752584282  8  5  5  4
    -0.00246252238266  8  5  6  5
     0.00152264821447  8  5  7  1
      0.0180777320429  8  5  7  2
    -0.00160211920002  8  5  7  3
    -0.00823518815914  8  5  7  4
    -0.00363411358406  8  5  7  6
     0.00823518815914  8  5  8  5
    0.000899398476776  8  6  4  1
      0.0146891610827  8  6  4  2
     0.00342748555825  8  6  4  3
     0.00976471755974  8  6  4  4
    -0.00976471755974  8  6  5  5
     0.00594225794311  8  6  6  4
    -0.00363411358406  8  6  7  5
     -0.0257129029905  8  6  7  7
    -0.00629762142125  8  6  8  1
     -0.0350646882935  8  6  8  2
      0.0116148062808  8  6  8  3
    -0.00363411358406  8  6  8  4
      0.0231975128273  8  6  8  6
     0.00109566802997  8  7  5  1
      0.0309381928285  8  7  5  2
     0.00364040612799  8  7  5  3
     -0.0235813176836  8  7  5  4
      0.0147364301794  8  7  6  5
     0.00662140574488  8  7  7  1
      0.0603027047821  8  7  7  2
     -0.0176013833276  8  7  7  3
     -0.0142080710732  8  7  7  4
     -0.0257129029905  8  7  7  6
      0.0142080710732  8  7  8  5
      0.0571343633262  8  7  8  7
        1.23633509646  8  8  1  1
    -0.00427756378934  8  8  2  1
       0.990011273976  8  8  2  2
    0.000766291883371  8  8  3  1
      -0.108501868331  8  8  3  2
       0.394730713035  8  8  3  3
     0.00109566802997  8  8  4  1
      0.0309381928285  8  8  4  2
     0.00364040612799  8  8  4  3
       0.665626605217  8  8  4  4
       0.618463969850  8  8  5  5
     0.00205421919238  8  8  6  1
      -0.180302916177  8  8  6  2
       0.135485073466  8  8  6  3
      0.0147364301794  8  8  6  4
       0.772102693874  8  8  6  6
       0.132904548177  8  8  7  5
       0.932584866432  8  8  7  7
    -0.00662140574488  8  8  8  1
     -0.0603027047821  8  8  8  2
      0.0176013833276  8  8  8  3
      -0.161320690324  8  8  8  4
      0.0257129029905  8  8  8  6
        1.04685359308  8  8  8  8
      0.0481263292477  9  1  9  1
      0.0488379745645  9  2  9  1
       0.198883606456  9  2  9  2
    -0.00944370750530  9  3  9  1
     -0.0201611924224  9  3  9  2
      0.0118808172191  9  3  9  3
    -0.00746077123308  9  4  9  1
     -0.0479786360993  9  4  9  2
    -0.00105502195031  9  4  9  3
      0.0265144687018  9  4  9  4
      0.0129224348393  9  5  9  1
      0.0831014354019  9  5  9  2
     0.00182735162104  9  5  9  3
     -0.0307291788589  9  5  9  4
      0.0619974680741  9  5  9  5
     -0.0254248318352  9  6  9  1
     -0.0341738445069  9  6  9  2
      0.0195211040732  9  6  9  3
    -0.00555814914131  9  6  9  4
     0.00962699670879  9  6  9  5
      0.0528111710289  9  6  9  6
      0.0345488340562  9  7  9  1
       0.127318919740  9  7  9  2
     -0.0208707488980  9  7  9  3
     -0.0279522559845  9  7  9  4
      0.0551581044860  9  7  9  5
     -0.0356160476012  9  7  9  6
       0.119078620581  9  7  9  7
      0.0199467786425  9  8  9  1
      0.0735076125847  9  8  9  2
     -0.0120497324945  9  8  9  3
     -0.0228816194517  9  8  9  4
      0.0279522559845  9  8  9  5
     -0.0205629346700  9  8  9  6
      0.0580522155415  9  8  9  7
      0.0520456960409  9  8  9  8
        1.41308281510  9  9  1  1
     -0.0199644209636  9  9  2  1
       0.988978751190  9  9  2  2
     0.00486047486203  9  9  3  1
      -0.109171952512  9  9  3  2
       0.394866939882  9  9  3  3
   -0.000786868529047  9  9  4  1
     -0.0197967922209  9  9  4  2
    -0.00327564134212  9  9  4  3
       0.619589612619  9  9  4  4
     0.00136289627119  9  9  5  1
      0.0342890499534  9  9  5  2
     0.00567357723193  9  9  5  3
     -0.0231849885711  9  9  5  4
       0.646361331404  9  9  5  5
      0.0152963332754  9  9  6  1
      -0.191769250732  9  9  6  2
       0.138718017287  9  9  6  3
     -0.0113528502148  9  9  6  4
      0.0196637133828  9  9  6  5
       0.784050664713  9  9  6  6
     0.00910045885616  9  9  7  1
      0.0613368234800  9  9  7  2
     -0.0189439620653  9  9  7  3
    -0.00989939727048  9  9  7  4
       0.141090832909  9  9  7  5
     -0.0287015753748  9  9  7  6
       0.982975232749  9  9  7  7
     0.00525415237036  9  9  8  1
      0.0354128315474  9  9  8  2
     -0.0109373015979  9  9  8  3
      -0.129659993551  9  9  8  4
     0.00989939727048  9  9  8  5
     -0.0165708622688  9  9  8  6
      0.0452692884621  9  9  8  7
       0.930702760990  9  9  8  8
        1.03219894324  9  9  9  9
     -0.0121015403404 10  1  9  1
     -0.0122371849451 10  1  9  2
     0.00237592876365 10  1  9  3
     0.00186187866370 10  1  9  4
    -0.00322486844305 10  1  9  5
     0.00639867425041 10  1  9  6
    -0.00866142677039 10  1  9  7
    -0.00500067707745 10  1  9  8
     0.00304300152998 10  1 10  1
     -0.0107328997644 10  2  9  1
     -0.0364369028669 10  2  9  2
     0.00765782408935 10  2  9  3
     0.00637822633730 10  2  9  4
     -0.0110474120784 10  2  9  5
      0.0128370190339 10  2  9  6
     -0.0265734649553 10  2  9  7
     -0.0153421971453 10  2  9  8
     0.00269307381677 10  2 10  1
     0.00827497391512 10  2 10  2
     0.00572522484318 10  3  9  1
      0.0393778047949 10  3  9  2
      0.0136118629769 10  3  9  3
     -0.0170547624308 10  3  9  4
      0.0295397150411 10  3  9  5
     0.00873577127421 10  3  9  6
      0.0136993483416 10  3  9  7
     0.00790932245273 10  3  9  8
    -0.00141307839951 10  3 10  1
   -0.000297783393093 10  3 10  2
      0.0587035959649 10  3 10  3
    0.000555294716277 10  4  9  1
   -0.000454375267671 10  4  9  2
    -0.00315355317106 10  4  9  3
     0.00250552372832 10  4  9  4
    -0.00315167156265 10  4  9  5
    -0.00337142546897 10  4  9  6
     0.00279786606725 10  4  9  7
     0.00327830454908 10  4  9  8
   -0.000141088350535 10  4 10  1
    -0.00119856010216 10  4 10  2
    -0.00672765495394 10  4 10  3
     0.00237720253907 10  4 10  4
   -0.000961798661766 10  5  9  1
    0.000787001049309 10  5  9  2
     0.00546211431664 10  5  9  3
    -0.00315167156265 10  5  9  4
     0.00614476057850 10  5  9  5
     0.00583948020619 10  5  9  6
    -0.00650900200325 10  5  9  7
    -0.00279786606725 10  5  9  8
    0.000244372191482 10  5 10  1
     0.00207596699287 10  5 10  2
      0.0116526401960 10  5 10  3
    -0.00242177556800 10  5 10  4
     0.00517362809127 10  5 10  5
     0.00715464039466 10  6  9  1
      0.0149518839789 10  6  9  2
    -0.00708406497369 10  6  9  3
   -0.000711414625643 10  6  9  4
     0.00123220627686 10  6  9  5
     -0.0106570728280 10  6  9  6
      0.0125951880529 10  6  9  7
     0.00727183521281 10  6  9  8
    -0.00180541714719 10  6 10  1
    -0.00490647152530 10  6 10  2
     -0.0147158571204 10  6 10  3
     0.00171948542581 10  6 10  4
    -0.00297823612038 10  6 10  5
     0.00889352372463 10  6 10  6
    -0.00924568335263 10  7  9  1
     -0.0387966810970 10  7  9  2
     0.00184219089732 10  7  9  3
      0.0111492300587 10  7  9  4
     -0.0220256335887 10  7  9  5
     0.00512689302283 10  7  9  6
     -0.0302672495312 10  7  9  7
     -0.0150630552021 10  7  9  8
     0.00231504450020 10  7 10  1
     0.00628084634886 10  7 10  2
     -0.0128532837137 10  7 10  3
     0.00103067821790 10  7 10  4
    -0.00203276898220 10  7 10  5
    -0.00149876224894 10  7 10  6
      0.0105696067290 10  7 10  7
    -0.00533799777248 10  8  9  1
     -0.0223992742750 10  8  9  2
     0.00106358941047 10  8  9  3
     0.00915161163746 10  8  9  4
     -0.0111492300587 10  8  9  5
     0.00296001306684 10  8  9  6
     -0.0150630552021 10  8  9  7
     -0.0128739315797 10  8  9  8
     0.00133659156538 10  8 10  1
     0.00362624833025 10  8 10  2
    -0.00742084681206 10  8 10  3
    0.000842644289097 10  8 10  4
    -0.00103067821790 10  8 10  5
   -0.000865310787875 10  8 10  6
     0.00528183089598 10  8 10  7
     0.00447067374981 10  8 10  8
      -0.234704009243 10  9  1  1
     0.00502087012678 10  9  2  1
      -0.129727339564 10  9  2  2
    -0.00123618192687 10  9  3  1
      0.0241661215004 10  9  3  2
     -0.0138492737561 10  9  3  3
    0.000175019587664 10  9  4  1
     0.00205346084243 10  9  4  2
    -0.00163366798722 10  9  4  3
     -0.0477928744576 10  9  4  4
   -0.000303142818153 10  9  5  1
    -0.00355669851045 10  9  5  2
     0.00282959595656 10  9  5  3
    0.000148923170947 10  9  5  4
     -0.0479648361233 10  9  5  5
    -0.00384223466152 10  9  6  1
      0.0465438093955 10  9  6  2
     -0.0233030965986 10  9  6  3
   -0.000456461021200 10  9  6  4
    0.000790613680393 10  9  6  5
     -0.0869375645780 10  9  6  6
    -0.00210869414485 10  9  7  1
     -0.0133498336846 10  9  7  2
     0.00179333292921 10  9  7  3
     0.00342439560264 10  9  7  4
     -0.0316966702436 10  9  7  5
     0.00535762473497 10  9  7  6
      -0.127405401848 10  9  7  7
    -0.00121745513217 10  9  8  1
    -0.00770753007147 10  9  8  2
     0.00103538124943 10  9  8  3
      0.0277425187976 10  9  8  4
    -0.00342439560264 10  9  8  5
     0.00309322608295 10  9  8  6
    -0.00821264303498 10  9  8  7
      -0.117922258514 10  9  8  8
      -0.136768028304 10  9  9  9
      0.0297162246425 10  9 10  9
       0.356336074209 10 10  1  1
    -0.00126302158510 10 10  2  1
       0.330101755260 10 10  2  2
    0.000298553572770 10 10  3  1
    -0.00669807845244 10 10  3  2
       0.280092498329 10 10  3  3
   -6.02800204731E-05 10 10  4  1
    -0.00426588109273 10 10  4  2
    -0.00525203815492 10 10  4  3
       0.304578310686 10 10  4  4
    0.000104408058141 10 10  5  1
     0.00738872279166 10 10  5  2
     0.00909679692762 10 10  5  3
    -0.00875567641943 10 10  5  4
       0.314688494961 10 10  5  5
    0.000973944227154 10 10  6  1
     -0.0111174504769 10 10  6  2
      0.0165061792674 10 10  6  3
    -0.00407333741874 10 10  6  4
     0.00705522736563 10 10  6  5
       0.314165735410 10 10  6  6
    0.000659201500528 10 10  7  1
     0.00376893938299 10 10  7  2
    -0.00642084588401 10 10  7  3
     0.00197107534298 10 10  7  4
     0.00639437217720 10 10  7  5
    -0.00373363552020 10 10  7  6
       0.331437091840 10 10  7  7
    0.000380590163780 10 10  8  1
     0.00217599816733 10 10  8  2
    -0.00370707709956 10 10  8  3
    -0.00867037393692 10 10  8  4
    -0.00197107534298 10 10  8  5
    -0.00215561547264 10 10  8  6
     0.00564658333671 10 10  8  7
       0.324916979021 10 10  8  8
       0.337641468357 10 10  9  9
    -0.00623926760940 10 10 10  9
       0.281476793350 10 10 10 10
     -0.0526941712900 11  1  9  1
     -0.0484471307014 11  1  9  2
     0.00956362417340 11  1  9  3
     0.00719241523421 11  1  9  4
     -0.0124576286148 11  1  9  5
      0.0261856189031 11  1  9  6
     -0.0344968159709 11  1  9  7
     -0.0199167459870 11  1  9  8
      0.0132510330529 11  1 10  1
      0.0107202842533 11  1 10  2
    -0.00557178238104 11  1 10  3
   -0.000562251461692 11  1 10  4
    0.000973848098281 11  1 10  5
    -0.00729792990382 11  1 10  6
     0.00919879990309 11  1 10  7
     0.00531092960027 11  1 10  8
      0.0579359240905 11  1 11  1
     -0.0259127557383 11  2  9  1
     -0.0480037017847 11  2  9  2
      0.0200310020706 11  2  9  3
   -0.000601642337767 11  2  9  4
     0.00104207509700 11  2  9  5
      0.0482998625434 11  2  9  6
     -0.0434616614807 11  2  9  7
     -0.0250926019553 11  2  9  8
     0.00651700499352 11  2 10  1
      0.0149840202139 11  2 10  2
     0.00776136376964 11  2 10  3
    -0.00352016999127 11  2 10  4
     0.00609711327616 11  2 10  5
     -0.0113790141987 11  2 10  6
     0.00748859390664 11  2 10  7
     0.00432354170785 11  2 10  8
      0.0264667153683 11  2 11  1
      0.0462923213326 11  2 11  2
      0.0106004036434 11  3  9  1
      0.0465792962127 11  3  9  2
     0.00205691667404 11  3  9  3
     -0.0150984425373 11  3  9  4
      0.0261512695897 11  3  9  5
    0.000932616799668 11  3  9  6
      0.0232504893012 11  3  9  7
      0.0134236762569 11  3  9  8
    -0.00265748937445 11  3 10  1
    -0.00575253667543 11  3 10  2
      0.0166779942837 11  3 10  3
    -0.00262246977766 11  3 10  4
     0.00454225089622 11  3 10  5
     0.00346108060159 11  3 10  6
     -0.0106243877085 11  3 10  7
    -0.00613399310346 11  3 10  8
     -0.0105636411113 11  3 11  1
    -0.00230260353468 11  3 11  2
      0.0191412551462 11  3 11  3
    -0.00149471543202 11  4  9  1
     -0.0258760012966 11  4  9  2
    -0.00683735257677 11  4  9  3
      0.0215709255359 11  4  9  4
     -0.0245762934402 11  4  9  5
     -0.0142766836669 11  4  9  6
    -0.00774273780536 11  4  9  7
    -0.00391728885024 11  4  9  8
    0.000366400248301 11  4 10  1
    0.000882717568113 11  4 10  2
     -0.0179366868814 11  4 10  3
     0.00514089294502 11  4 10  4
    -0.00561962115660 11  4 10  5
     0.00193784890627 11  4 10  6
     0.00710369370933 11  4 10  7
     0.00562029376193 11  4 10  8
     0.00127943041385 11  4 11  1
     -0.0107653589527 11  4 11  2
     -0.0133139149036 11  4 11  3
      0.0250984729242 11  4 11  4
     0.00258892307112 11  5  9  1
      0.0448185489425 11  5  9  2
      0.0118426420522 11  5  9  3
     -0.0245762934402 11  5  9  4
      0.0499491848026 11  5  9  5
      0.0247279414746 11  5  9  6
      0.0128578323626 11  5  9  7
     0.00774273780536 11  5  9  8
   -0.000634623845963 11  5 10  1
    -0.00152891167670 11  5 10  2
      0.0310672529980 11  5 10  3
    -0.00561962115660 11  5 10  4
      0.0116298725200 11  5 10  5
    -0.00335645276305 11  5 10  6
     -0.0138229327126 11  5 10  7
    -0.00710369370933 11  5 10  8
    -0.00221603848154 11  5 11  1
      0.0186461486678 11  5 11  2
      0.0230603770607 11  5 11  3
     -0.0269290302953 11  5 11  4
      0.0561934387043 11  5 11  5
      0.0332222854365 11  6  9  1
       0.128532671621 11  6  9  2
    -0.00312522919427 11  6  9  3
     -0.0364984868648 11  6  9  4
      0.0632172336492 11  6  9  5
     -0.0100152826787 11  6  9  6
      0.0714911709475 11  6  9  7
      0.0412754467912 11  6  9  8
    -0.00832609504730 11  6 10  1
     -0.0195069138587 11  6 10  2
      0.0423324845158 11  6 10  3
    -0.00378167563097 11  6 10  4
     0.00655005433058 11  6 10  5
     0.00608426262307 11  6 10  6
     -0.0267415900302 11  6 10  7
     -0.0154392642025 11  6 10  8
     -0.0332746239145 11  6 11  1
     -0.0189058571147 11  6 11  2
      0.0390288060991 11  6 11  3
     -0.0274447642618 11  6 11  4
      0.0475357261032 11  6 11  5
       0.100637102524 11  6 11  6
     -0.0238668915812 11  7  9  1
     -0.0769908601003 11  7  9  2
     0.00611445991098 11  7  9  3
      0.0197957972091 11  7  9  4
     -0.0388612884070 11  7  9  5
      0.0181279874469 11  7  9  6
     -0.0601283278727 11  7  9  7
     -0.0301591745841 11  7  9  8
     0.00598753651842 11  7 10  1
      0.0134258326450 11  7 10  2
     -0.0204388325363 11  7 10  3
     0.00158115386591 11  7 10  4
    -0.00322074672591 11  7 10  5
    -0.00625086865272 11  7 10  6
      0.0202696979908 11  7 10  7
      0.0101524427274 11  7 10  8
      0.0241983077013 11  7 11  1
      0.0215223699029 11  7 11  2
     -0.0214614702190 11  7 11  3
      0.0121955099668 11  7 11  4
     -0.0239639125036 11  7 11  5
     -0.0547405006628 11  7 11  6
      0.0444339622570 11  7 11  7
     -0.0137795562791 11  8  9  1
     -0.0444506938041 11  8  9  2
     0.00353018507555 11  8  9  3
      0.0160030707120 11  8  9  4
     -0.0197957972091 11  8  9  5
      0.0104661984323 11  8  9  6
     -0.0301591745841 11  8  9  7
     -0.0253035127434 11  8  9  8
     0.00345690582069 11  8 10  1
     0.00775140809168 11  8 10  2
     -0.0118003654667 11  8 10  3
     0.00139498750568 11  8 10  4
    -0.00158115386591 11  8 10  5
    -0.00360894069932 11  8 10  6
      0.0101524427274 11  8 10  7
     0.00854666690768 11  8 10  8
      0.0139708994653 11  8 11  1
      0.0124259460570 11  8 11  2
     -0.0123907856081 11  8 11  3
     0.00988175057906 11  8 11  4
     -0.0121955099668 11  8 11  5
     -0.0316044427933 11  8 11  6
      0.0219630492189 11  8 11  7
      0.0190732174995 11  8 11  8
      -0.619833673667 11  9  1  1
      0.0215673100787 11  9  2  1
      -0.238060984927 11  9  2  2
    -0.00543888680205 11  9  3  1
      0.0556640449574 11  9  3  2
     -0.0140947790931 11  9  3  3
    0.000444729993041 11  9  4  1
    -0.00214016981247 11  9  4  2
    -0.00474554022447 11  9  4  3
     -0.0442026865493 11  9  4  4
   -0.000770294943597 11  9  5  1
     0.00370688285202 11  9  5  2
     0.00821951677814 11  9  5  3
    -0.00957822394156 11  9  5  4
     -0.0331427062072 11  9  5  5
     -0.0169600146251 11  9  6  1
       0.134198715592 11  9  6  2
     -0.0418801895162 11  9  6  3
    -0.00839332149698 11  9  6  4
      0.0145376592770 11  9  6  5
      -0.151222496073 11  9  6  6
    -0.00615691729310 11  9  7  1
     -0.0231054046537 11  9  7  2
     0.00190403834825 11  9  7  3
     0.00585617546136 11  9  7  4
     -0.0615889217311 11  9  7  5
      0.0129737797884 11  9  7  6
      -0.223675589958 11  9  7  7
    -0.00355469785655 11  9  8  1
     -0.0133399115965 11  9  8  2
     0.00109929705291 11  9  8  3
      0.0548267927730 11  9  8  4
    -0.00585617546136 11  9  8  5
     0.00749041525327 11  9  8  6
     -0.0117681013318 11  9  8  7
      -0.210086957015 11  9  8  8
      -0.252699346642 11  9  9  9
      0.0635060093384 11  9 10  9
     -0.0100096302848 11  9 10 10
       0.181105617665 11  9 11  9
       0.225952759567 11 10  1  1
    -0.00542631677002 11 10  2  1
       0.129222297791 11 10  2  2
     0.00135244023892 11 10  3  1
     -0.0171400989330 11 10  3  2
      0.0342125966689 11 10  3  3
   -0.000131699854990 11 10  4  1
    -0.00263621568072 11 10  4  2
    -0.00121446866393 11 10  4  3
      0.0710730151592 11 10  4  4
    0.000228110840192 11 10  5  1
     0.00456605949871 11 10  5  2
     0.00210352143012 11 10  5  3
    -0.00394574171729 11 10  5  4
      0.0756291652445 11 10  5  5
     0.00427886111263 11 10  6  1
     -0.0339820168389 11 10  6  2
      0.0249554869399 11 10  6  3
    -0.00191361596009 11 10  6  4
     0.00331448006906 11 10  6  5
      0.0987894097196 11 10  6  6
     0.00169935365761 11 10  7  1
     0.00740131565258 11 10  7  2
    -0.00324793733860 11 10  7  3
   -0.000237805718001 11 10  7  4
      0.0184285705326 11 10  7  5
    -0.00543090258124 11 10  7  6
       0.126078268195 11 10  7  7
    0.000981122291669 11 10  8  1
     0.00427315158437 11 10  8  2
    -0.00187519749675 11 10  8  3
     -0.0181539761420 11 10  8  4
    0.000237805718001 11 10  8  5
    -0.00313553306722 11 10  8  6
     0.00600129156150 11 10  8  7
       0.119148573598 11 10  8  8
       0.136784243378 11 10  9  9
     -0.0216702146108 11 10 10  9
      0.0192900897821 11 10 10 10
     -0.0433914544130 11 10 11  9
      0.0270818301217 11 10 11 10
        1.16028988473 11 11  1  1
     -0.0236361809567 11 11  2  1
       0.771417510202 11 11  2  2
     0.00593815514167 11 11  3  1
     -0.0694080165940 11 11  3  2
       0.370757519638 11 11  3  3
   -0.000517408701367 11 11  4  1
     -0.0145988666162 11 11  4  2
    -0.00713467968620 11 11  4  3
       0.537095562850 11 11  4  4
    0.000896178159045 11 11  5  1
      0.0252859787122 11 11  5  2
      0.0123576277122 11 11  5  3
     -0.0231395153183 11 11  5  4
       0.563814773646 11 11  5  5
      0.0190144584372 11 11  6  1
      -0.126517789299 11 11  6  2
       0.104710210903 11 11  6  3
     -0.0129599210923 11 11  6  4
      0.0224472417939 11 11  6  5
       0.648816988706 11 11  6  6
     0.00654116325044 11 11  7  1
      0.0296007422665 11 11  7  2
     -0.0148261481057 11 11  7  3
   -0.000454038728872 11 11  7  4
      0.0777385938344 11 11  7  5
     -0.0205355478067 11 11  7  6
       0.756001570019 11 11  7  7
     0.00377654236345 11 11  8  1
      0.0170899965158 11 11  8  2
    -0.00855988059988 11 11  8  3
     -0.0772143150698 11 11  8  4
    0.000454038728872 11 11  8  5
     -0.0118562040541 11 11  8  6
      0.0254170767202 11 11  8  7
       0.726652457847 11 11  8  8
       0.805363793544 11 11  9  9
     -0.0877933525616 11 11 10  9
       0.324949763120 11 11 10 10
      -0.161948366961 11 11 11  9
       0.106416222422 11 11 11 10
       0.681078091484 11 11 11 11
      0.0481263292477 12  1 12  1
      0.0488379745645 12  2 12  1
       0.198883606456 12  2 12  2
    -0.00944370750530 12  3 12  1
     -0.0201611924224 12  3 12  2
      0.0118808172191 12  3 12  3
    -0.00746077123308 12  4 12  1
     -0.0479786360993 12  4 12  2
    -0.00105502195031 12  4 12  3
      0.0265144687018 12  4 12  4
     -0.0129224348393 12  5 12  1
     -0.0831014354019 12  5 12  2
    -0.00182735162104 12  5 12  3
      0.0307291788589 12  5 12  4
      0.0619974680741 12  5 12  5
     -0.0254248318352 12  6 12  1
     -0.0341738445069 12  6 12  2
      0.0195211040732 12  6 12  3
    -0.00555814914131 12  6 12  4
    -0.00962699670879 12  6 12  5
      0.0528111710289 12  6 12  6
     -0.0345488340562 12  7 12  1
      -0.127318919740 12  7 12  2
      0.0208707488980 12  7 12  3
      0.0279522559845 12  7 12  4
      0.0551581044860 12  7 12  5
      0.0356160476012 12  7 12  6
       0.119078620581 12  7 12  7
      0.0199467786425 12  8 12  1
      0.0735076125847 12  8 12  2
     -0.0120497324945 12  8 12  3
     -0.0228816194517 12  8 12  4
     -0.0279522559845 12  8 12  5
     -0.0205629346700 12  8 12  6
     -0.0580522155415 12  8 12  7
      0.0520456960409 12  8 12  8
      0.0510103445074 12  9 12  9
    -0.00895816755262 12 10 12  9
     0.00286492548745 12 10 12 10
     -0.0139446563506 12 11 12  9
     0.00575338549514 12 11 12 10
      0.0201369461070 12 11 12 11
        1.41308281510 12 12  1  1
     -0.0199644209636 12 12  2  1