 &FCI NORB=   9,NELEC= 8,MS2=2,
  ORBSYM=1,1,1,1,1,1,1,1,1,
  ISYM=1,
 &END
 4.741681826366138    1    1    1    1
 -0.4727332307573144    1    1    2    1
 1.128058613946117    1    1    2    2
 1.080427552056958    1    1    3    3
 1.116790166054586    1    1    4    4
 1.116790166054587    1    1    5    5
 -0.5046942100555186    1    1    6    3
 -3.323665127841213e-14    1    1    6    5
 0.9405627241193999    1    1    6    6
 2.601217852227222e-15    1    1    7    3
 -0.4968026814183879    1    1    7    4
 -0.03866847491412816    1    1    7    5
 0.9042001101217703    1    1    7    7
 3.374557577817683e-14    1    1    8    3
 0.0386684749141285    1    1    8    4
 -0.4968026814183882    1    1    8    5
 -2.517951125380335e-15    1    1    8    6
 0.9042001101217703    1    1    8    8
 -0.4058423504681516    1    1    9    1
 0.4429909396750309    1    1    9    2
 0.8650929966622876    1    1    9    9
 -0.4727332307573144    2    1    1    1
 0.07621770611339423    2    1    2    1
 -0.02056053986406986    2    1    2    2
 -0.01345500375585873    2    1    3    3
 -0.01456873363647586    2    1    4    4
 -0.01456873363647587    2    1    5    5
 0.01530603214262603    2    1    6    3
 1.029046775092093e-15    2    1    6    5
 -0.01755429975886561    2    1    6    6
 0.01536778990913744    2    1    7    4
 0.001196146922738977    2    1    7    5
 -0.01644056987824846    2    1    7    7
 -1.021342163403868e-15    2    1    8    3
 -0.001196146922738981    2    1    8    4
 0.01536778990913745    2    1    8    5
 -0.01644056987824847    2    1    8    8
 0.0657826475438911    2    1    9    1
 -0.01801725445439308    2    1    9    2
 -0.01594408425331433    2    1    9    9
 1.128058613946117    2    2    1    1
 -0.02056053986406986    2    2    2    1
 0.7931501736071959    2    2    2    2
 0.7656149189722845    2    2    3    3
 0.7803681096969984    2    2    4    4
 0.7803681096969989    2    2    5    5
 -0.2063083977592014    2    2    6    3
 -1.33734169571742e-14    2    2    6    5
 0.6238144322135704    2    2    6    6
 1.06804756011547e-15    2    2    7    3
 -0.2000277282377008    2    2    7    4
 -0.01556909308421303    2    2    7    5
 0.6090612414888555    2    2    7    7
 1.383008291222509e-14    2    2    8    3
 0.01556909308421328    2    2    8    4
 -0.2000277282377011    2    2    8    5
 -1.028691021254247e-15    2    2    8    6
 0.6090612414888557    2    2    8    8
 -0.01673798044936156    2    2    9    1
 0.176773623274447    2    2    9    2
 0.6224089554994772    2    2    9    9
 0.0330294354160697    3    1    3    1
 0.03550251696024868    3    1    3    2
 -0.03802890601356305    3    1    6    1
 -0.02105870616797034    3    1    6    2
 2.537481008550236e-15    3    1    8    1
 1.407650530662462e-15    3    1    8    2
 0.01859250006638175    3    1    9    3
 -0.02506864726432269    3    1    9    6
 1.672815531927885e-15    3    1    9    8
 0.03550251696024868    3    2    3    1
 0.1559693535618468    3    2    3    2
 -0.03729302140204187    3    2    6    1
 -0.0468107548151044    3    2    6    2
 2.489959760399198e-15    3    2    8    1
 3.13948463712072e-15    3    2    8    2
 0.02885878891314922    3    2    9    3
 -0.1065695829014734    3    2    9    6
 7.105861038469996e-15    3    2    9    8
 1.080427552056958    3    3    1    1
 -0.01345500375585876    3    3    2    1
 0.7656149189722845    3    3    2    2
 0.796302534386379    3    3    3    3
 0.7304238149216207    3    3    4    4
 0.7304238149216209    3    3    5    5
 -0.2140483630604087    3    3    6    3
 -1.232998078637415e-14    3    3    6    5
 0.6490386733737186    3    3    6    6
 1.107891989954313e-15    3    3    7    3
 -0.1845045046966007    3    3    7    4
 -0.01436084803535042    3    3    7    5
 0.5815688296540679    3    3    7    7
 1.434919891241115e-14    3    3    8    3
 0.01436084803535066    3    3    8    4
 -0.184504504696601    3    3    8    5
 -4.534567166203374e-15    3    3    8    6
 0.5815688296540681    3    3    8    8
 -0.01066446931240221    3    3    9    1
 0.1667975795622603    3    3    9    2
 0.6083447713106734    3    3    9    9
 0.03579753246368542    4    1    4    1
 0.03759834036285238    4    1    4    2
 -0.03820867506599174    4    1    7    1
 -0.02045475739264111    4    1    7    2
 0.002973959780315925    4    1    8    1
 0.00159208938014128    4    1    8    2
 0.0202396325465577    4    1    9    4
 -0.02522323493656154    4    1    9    7
 0.001963242276818961    4    1    9    8
 0.03759834036285238    4    2    4    1
 0.1592086240812717    4    2    4    2
 -0.03664011928218429    4    2    7    1
 -0.04241061841751296    4    2    7    2
 0.002851871751715913    4    2    8    1
 0.003301016672631776    4    2    8    2
 0.03419752021105012    4    2    9    4
 -0.1057117019631376    4    2    9    7
 0.008228035895097982    4    2    9    8
 0.04057919421036628    4    3    4    3
 -0.01361221238447064    4    3    6    4
 -0.01114239716610278    4    3    7    3
 0.02653652956281439    4    3    7    6
 0.0008672648546714419    4    3    8    3
 -0.002065462136351786    4    3    8    6
 -1.759858119895394e-15    4    3    8    7
 1.116790166054586    4    4    1    1
 -0.01456873363647586    4    4    2    1
 0.7803681096969985    4    4    2    2
 0.7304238149216203    4    4    3    3
 0.827715318380627    4    4    4    4
 0.7446472327867766    4    4    5    5
 -0.1986926426361912    4    4    6    3
 -1.290547529952946e-14    4    4    6    5
 0.6051578542609153    4    4    6    6
 1.027498398864513e-15    4    4    7    3
 -0.2184262248088086    4    4    7    4
 -0.01502611769670088    4    4    7    5
 0.6432990587780744    4    4    7    7
 1.331530372072898e-14    4    4    8    3
 0.01700113407297438    4    4    8    4
 -0.1930517192521057    4    4    8    5
 -0.00407578332950502    4    4    8    7
 0.5912516736638472    4    4    8    8
 -0.01154971156009249    4    4    9    1
 0.1750769185427122    4    4    9    2
 0.6172305447051948    4    4    9    9
 0.03579753246368546    5    1    5    1
 0.03759834036285242    5    1    5    2
 -2.559025051098382e-15    5    1    6    1
 -1.369129671103963e-15    5    1    6    2
 -0.002973959780315912    5    1    7    1
 -0.001592089380141272    5    1    7    2
 -0.03820867506599177    5    1    8    1
 -0.02045475739264112    5    1    8    2
 0.02023963254655773    5    1    9    5
 -1.689403825166913e-15    5    1    9    6
 -0.001963242276818955    5    1    9    7
 -0.02522323493656156    5    1    9    8
 0.03759834036285243    5    2    5    1
 0.1592086240812718    5    2    5    2
 -2.453042977524235e-15    5    2    6    1
 -2.836333535073739e-15    5    2    6    2
 -0.002851871751715906    5    2    7    1
 -0.003301016672631747    5    2    7    2
 -0.03664011928218431    5    2    8    1
 -0.04241061841751297    5    2    8    2
 0.03419752021105012    5    2    9    5
 -7.083743314151292e-15    5    2    9    6
 -0.008228035895097982    5    2    9    7
 -0.1057117019631376    5    2    9    8
 0.04057919421036631    5    3    5    3
 -0.01361221238447066    5    3    6    5
 3.532737253772456e-15    5    3    6    6
 -0.0008672648546714331    5    3    7    3
 0.002065462136351785    5    3    7    6
 -0.01114239716610279    5    3    8    3
 0.0265365295628144    5    3    8    6
 -3.557728113848246e-15    5    3    8    8
 0.04153404279692561    5    4    5    4
 -0.0009875081881366347    5    4    7    4
 -0.01268725277835166    5    4    7    5
 1.753425963452182e-15    5    4    7    6
 0.004075783329505    5    4    7    7
 -0.01268725277835165    5    4    8    4
 0.0009875081881366406    5    4    8    5
 0.02602369255711361    5    4    8    7
 -0.004075783329504825    5    4    8    8
 1.116790166054587    5    5    1    1
 -0.01456873363647592    5    5    2    1
 0.7803681096969991    5    5    2    2
 0.7304238149216209    5    5    3    3
 0.7446472327867767    5    5    4    4
 0.8277153183806285    5    5    5    5
 -0.1986926426361917    5    5    6    3
 -1.461157583815265e-14    5    5    6    5
 0.6051578542609158    5    5    6    6
 1.02733576853864e-15    5    5    7    3
 -0.1930517192521059    5    5    7    4
 -0.01700113407297416    5    5    7    5
 0.5912516736638479    5    5    7    7
 1.331226795464602e-14    5    5    8    3
 0.01502611769670114    5    5    8    4
 -0.2184262248088094    5    5    8    5
 2.516216401904359e-15    5    5    8    6
 0.004075783329504808    5    5    8    7
 0.6432990587780754    5    5    8    8
 -0.01154971156009254    5    5    9    1
 0.1750769185427124    5    5    9    2
 0.6172305447051947    5    5    9    9
 -0.03802890601356305    6    1    3    1
 -0.03729302140204187    6    1    3    2
 -2.558414568490618e-15    6    1    5    1
 -2.453381257601034e-15    6    1    5    2
 0.04394377665136243    6    1    6    1
 0.02264593821935457    6    1    6    2
 -0.02013376230971711    6    1    9    3
 -1.359372683862325e-15    6    1    9    5
 0.02660795845532309    6    1    9    6
 -0.02105870616797034    6    2    3    1
 -0.0468107548151044    6    2    3    2
 -1.369036576724107e-15    6    2    5    1
 -2.835515945750291e-15    6    2    5    2
 0.02264593821935458    6    2    6    1
 0.04137669295910908    6    2    6    2
 -0.04122819014145127    6    2    9    3
 -2.716685383596928e-15    6    2    9    5
 0.01935355463406923    6    2    9    6
 -0.5046942100555186    6    3    1    1
 0.01530603214262608    6    3    2    1
 -0.2063083977592015    6    3    2    2
 -0.2140483630604087    6    3    3    3
 -0.1986926426361914    6    3    4    4
 -0.1986926426361915    6    3    5    5
 0.1548673997849704    6    3    6    3
 9.054172342426448e-15    6    3    6    5
 -0.1489435994460992    6    3    6    6
 0.1189169261729991    6    3    7    4
 0.009255860220918019    6    3    7    5
 -0.130646545141869    6    3    7    7
 -9.289552634073051e-15    6    3    8    3
 -0.009255860220918068    6    3    8    4
 0.1189169261729992    6    3    8    5
 1.031509946902709e-15    6    3    8    6
 -0.1306465451418691    6    3    8    8
 0.01216048859648544    6    3    9    1
 -0.1152174042851987    6    3    9    2
 -0.1241632636812832    6    3    9    9
 -0.01361221238447064    6    4    4    3
 0.01707909690791408    6    4    6    4
 0.01635065568604445    6    4    7    3
 1.072709629457158e-15    6    4    7    5
 -0.005101061151135655    6    4    7    6
 -0.001272647960393963    6    4    8    3
 0.0003970394334325425    6    4    8    6
 -3.324411697916689e-14    6    5    1    1
 1.029613870605022e-15    6    5    2    1
 -1.337183851384788e-14    6    5    2    2
 -1.233242193532814e-14    6    5    3    3
 -1.290718264331896e-14    6    5    4    4
 -0.01361221238447066    6    5    5    3
 -1.460352394295605e-14    6    5    5    5
 9.054822863729939e-15    6    5    6    3
 0.01707909690791409    6    5    6    5
 -9.766764220292545e-15    6    5    6    6
 0.001272647960393962    6    5    7    3
 7.796084364385884e-15    6    5    7    4
 -0.0003970394334325334    6    5    7    6
 -8.498143916948466e-15    6    5    7    7
 0.01635065568604446    6    5    8    3
 8.80567320449277e-15    6    5    8    5
 -0.005101061151135663    6    5    8    6
 -8.289864020932791e-15    6    5    8    8
 -7.553241581759335e-15    6    5    9    2
 -8.060438044793445e-15    6    5    9    9
 0.9405627241194005    6    6    1    1
 -0.01755429975886566    6    6    2    1
 0.6238144322135704    6    6    2    2
 0.6490386733737186    6    6    3    3
 0.6051578542609154    6    6    4    4
 3.534499082302744e-15    6    6    5    3
 0.6051578542609156    6    6    5    5
 -0.1489435994460992    6    6    6    3
 -9.76605948888043e-15    6    6    6    5
 0.5717337740820725    6    6    6    6
 -0.1358496181534063    6    6    7    4
 -0.01057381078673137    6    6    7    5
 0.5093125372968803    6    6    7    7
 9.552688501335282e-15    6    6    8    3
 0.01057381078673157    6    6    8    4
 -0.1358496181534065    6    6    8    5
 0.5093125372968805    6    6    8    8
 -0.01422228898245833    6    6    9    1
 0.118155110855887    6    6    9    2
 0.5281941048301946    6    6    9    9
 -0.03820867506599174    7    1    4    1
 -0.03664011928218429    7    1    4    2
 -0.002973959780315913    7    1    5    1
 -0.002851871751715907    7    1    5    2
 0.04117567960374664    7    1    7    1
 0.02055011481675083    7    1    7    2
 -0.02030323075271267    7    1    9    4
 -0.001580295353470231    7    1    9    5
 0.02496082597514711    7    1    9    7
 -0.02045475739264111    7    2    4    1
 -0.04241061841751295    7    2    4    2
 -0.001592089380141273    7    2    5    1
 -0.003301016672631748    7    2    5    2
 0.02055011481675084    7    2    7    1
 0.03813742243968407    7    2    7    2
 -0.04056734121004801    7    2    9    4
 -0.003157545791490109    7    2    9    5
 0.01401482333616825    7    2    9    7
 2.601311370486173e-15    7    3    1    1
 1.067547283844347e-15    7    3    2    2
 1.108331811812175e-15    7    3    3    3
 -0.01114239716610278    7    3    4    3
 1.027757220369458e-15    7    3    4    4
 -0.0008672648546714322    7    3    5    3
 1.027644723806151e-15    7    3    5    5
 0.01635065568604445    7    3    6    4
 0.001272647960393961    7    3    6    5
 0.01587840587799015    7    3    7    3
 -0.003214174979753001    7    3    7    6
 -1.043425225815214e-15    7    3    8    4
 -0.496802681418388    7    4    1    1
 0.01536778990913748    7    4    2    1
 -0.2000277282377008    7    4    2    2
 -0.1845045046966006    7    4    3    3
 -0.2184262248088088    7    4    4    4
 -0.0009875081881366352    7    4    5    4
 -0.1930517192521058    7    4    5    5
 0.118916926172999    7    4    6    3
 7.794681783704349e-15    7    4    6    5
 -0.1358496181534064    7    4    6    6
 0.1486421973778329    7    4    7    4
 0.01031449140759913    7    4    7    5
 -0.1344148146756749    7    4    7    7
 -7.939964874817407e-15    7    4    8    3
 -0.01031449140759916    7    4    8    4
 0.1163937007351236    7    4    8    5
 0.0002767960999673693    7    4    8    7
 -0.1273024035979015    7    4    8    8
 0.01222041867493741    7    4    9    1
 -0.1128125618317614    7    4    9    2
 -0.1205706767405799    7    4    9    9
 -0.03866847491412815    7    5    1    1
 0.001196146922738981    7    5    2    1
 -0.01556909308421303    7    5    2    2
 -0.01436084803535043    7    5    3    3
 -0.01502611769670088    7    5    4    4
 -0.01268725277835166    7    5    5    4
 -0.01700113407297416    7    5    5    5
 0.009255860220918014    7    5    6    3
 1.072697718056337e-15    7    5    6    4
 -0.01057381078673138    7    5    6    6
 0.01031449140759913    7    5    7    4
 0.01692707340093769    7    5    7    5
 -0.01046213332531558    7    5    7    7
 0.0153214232417718    7    5    8    4
 0.01031449140759912    7    5    8    5
 -0.003556205538886802    7    5    8    7
 -0.009908541125380869    7    5    8    8
 0.000951172307731578    7    5    9    1
 -0.008780729010430326    7    5    9    2
 -0.009384579357767405    7    5    9    9
 0.02653652956281439    7    6    4    3
 0.002065462136351785    7    6    5    3
 1.75364804490304e-15    7    6    5    4
 -0.005101061151135657    7    6    6    4
 -0.0003970394334325339    7    6    6    5
 -0.003214174979752997    7    6    7    3
 0.0258552495372355    7    6    7    6
 0.9042001101217705    7    7    1    1
 -0.01644056987824846    7    7    2    1
 0.6090612414888554    7    7    2    2
 0.581568829654068    7    7    3    3
 0.6432990587780745    7    7    4    4
 0.004075783329505002    7    7    5    4
 0.591251673663848    7    7    5    5
 -0.1306465451418689    7    7    6    3
 -8.494073500120436e-15    7    7    6    5
 0.5093125372968808    7    7    6    6
 -0.1344148146756747    7    7    7    4
 -0.01046213332531559    7    7    7    5
 0.5511657447429308    7    7    7    7
 8.773797660621696e-15    7    7    8    3
 0.009908541125381077    7    7    8    4
 -0.1273024035979016    7    7    8    5
 0.4999469305551892    7    7    8    8
 -0.01333704673476784    7    7    9    1
 0.109875771875435    7    7    9    2
 0.5193083314356722    7    7    9    9
 2.537601554399744e-15    8    1    3    1
 2.489543068299483e-15    8    1    3    2
 0.002973959780315925    8    1    4    1
 0.002851871751715913    8    1    4    2
 -0.03820867506599177    8    1    5    1
 -0.0366401192821843    8    1    5    2
 0.04117567960374666    8    1    8    1
 0.02055011481675084    8    1    8    2
 1.343543332144037e-15    8    1    9    3
 0.001580295353470239    8    1    9    4
 -0.02030323075271268    8    1    9    5
 0.0249608259751471    8    1    9    8
 1.407532321975987e-15    8    2    3    1
 3.139991020105364e-15    8    2    3    2
 0.001592089380141281    8    2    4    1
 0.003301016672631774    8    2    4    2
 -0.02045475739264112    8    2    5    1
 -0.04241061841751298    8    2    5    2
 0.02055011481675085    8    2    8    1
 0.03813742243968409    8    2    8    2
 2.751596693550962e-15    8    2    9    3
 0.003157545791490116    8    2    9    4
 -0.04056734121004805    8    2    9    5
 0.01401482333616831    8    2    9    8
 3.374643244816708e-14    8    3    1    1
 -1.021052262557089e-15    8    3    2    1
 1.383028794969173e-14    8    3    2    2
 1.4353440853411e-14    8    3    3    3
 0.0008672648546714412    8    3    4    3
 1.331729932869835e-14    8    3    4    4
 -0.01114239716610278    8    3    5    3
 1.331371045175519e-14    8    3    5    5
 -9.290528416028287e-15    8    3    6    3
 -0.001272647960393963    8    3    6    4
 0.01635065568604446    8    3    6    5
 9.56559050718786e-15    8    3    6    6
 -7.939086281146165e-15    8    3    7    4
 8.772808598252486e-15    8    3    7    7
 0.01587840587799015    8    3    8    3
 -9.03492775386483e-15    8    3    8    5
 -0.003214174979752996    8    3    8    6
 9.19685334832554e-15    8    3    8    8
 7.698020888894357e-15    8    3    9    2
 8.330364831019754e-15    8    3    9    9
 0.0386684749141285    8    4    1    1
 -0.001196146922738982    8    4    2    1
 0.01556909308421328    8    4    2    2
 0.01436084803535066    8    4    3    3
 0.0170011340729744    8    4    4    4
 -0.01268725277835165    8    4    5    4
 0.01502611769670115    8    4    5    5
 -0.009255860220918065    8    4    6    3
 0.01057381078673158    8    4    6    6
 -1.043409065745737e-15    8    4    7    3
 -0.01031449140759916    8    4    7    4
 0.01532142324177179    8    4    7    5
 0.009908541125381075    8    4    7    7
 0.0169270734009377    8    4    8    4
 -0.01031449140759918    8    4    8    5
 -0.003556205538886796    8    4    8    7
 0.0104621333253158    8    4    8    8
 -0.0009511723077315826    8    4    9    1
 0.008780729010430371    8    4    9    2
 0.009384579357767599    8    4    9    9
 -0.4968026814183882    8    5    1    1
 0.01536778990913746    8    5    2    1
 -0.2000277282377011    8    5    2    2
 -0.184504504696601    8    5    3    3
 -0.1930517192521058    8    5    4    4
 0.000987508188136641    8    5    5    4
 -0.2184262248088093    8    5    5    5
 0.1189169261729991    8    5    6    3
 8.80567320449277e-15    8    5    6    5
 -0.1358496181534065    8    5    6    6
 0.1163937007351235    8    5    7    4
 0.01031449140759912    8    5    7    5
 -0.1273024035979016    8    5    7    7
 -9.034765123538957e-15    8    5    8    3
 -0.01031449140759917    8    5    8    4
 0.1486421973778331    8    5    8    5
 -0.0002767960999672799    8    5    8    7
 -0.1344148146756751    8    5    8    8
 0.01222041867493747    8    5    9    1
 -0.1128125618317614    8    5    9    2
 -0.1205706767405798    8    5    9    9
 -2.519343342353671e-15    8    6    1    1
 -1.025417417079205e-15    8    6    2    2
 -4.540259227608923e-15    8    6    3    3
 -0.002065462136351785    8    6    4    3
 0.0265365295628144    8    6    5    3
 2.524510548523873e-15    8    6    5    5
 1.031943627771703e-15    8    6    6    3
 0.000397039433432543    8    6    6    4
 -0.005101061151135673    8    6    6    5
 -0.003214174979753004    8    6    8    3
 0.02585524953723549    8    6    8    6
 -1.759605915835349e-15    8    7    4    3
 -0.004075783329505006    8    7    4    4
 0.0260236925571136    8    7    5    4
 0.004075783329504786    8    7    5    5
 0.0002767960999673743    8    7    7    4
 -0.003556205538886797    8    7    7    5
 -0.00355620553888679    8    7    8    4
 -0.0002767960999672836    8    7    8    5
 0.02560940709387085    8    7    8    7
 0.9042001101217705    8    8    1    1
 -0.01644056987824843    8    8    2    1
 0.6090612414888557    8    8    2    2
 0.5815688296540682    8    8    3    3
 0.5912516736638476    8    8    4    4
 -3.557050487490443e-15    8    8    5    3
 -0.004075783329504826    8    8    5    4
 0.6432990587780751    8    8    5    5
 -0.130646545141869    8    8    6    3
 -8.292411896038132e-15    8    8    6    5
 0.5093125372968805    8    8    6    6
 -0.1273024035979014    8    8    7    4
 -0.009908541125380883    8    8    7    5
 0.4999469305551891    8    8    7    7
 9.200539635711991e-15    8    8    8    3
 0.01046213332531578    8    8    8    4
 -0.1344148146756751    8    8    8    5
 0.5511657447429311    8    8    8    8
 -0.01333704673476795    8    8    9    1
 0.109875771875435    8    8    9    2
 0.5193083314356719    8    8    9    9
 -0.4058423504681516    9    1    1    1
 0.06578264754389107    9    1    2    1
 -0.01673798044936159    9    1    2    2
 -0.01066446931240208    9    1    3    3
 -0.01154971156009247    9    1    4    4
 -0.01154971156009248    9    1    5    5
 0.01216048859648546    9    1    6    3
 -0.01422228898245824    9    1    6    6
 0.01222041867493741    9    1    7    4
 0.0009511723077315771    9    1    7    5
 -0.01333704673476784    9    1    7    7
 -0.0009511723077315813    9    1    8    4
 0.01222041867493742    9    1    8    5
 -0.01333704673476785    9    1    8    8
 0.05694993934805573    9    1    9    1
 -0.01452597029084507    9    1    9    2
 -0.01299768249611448    9    1    9    9
 0.4429909396750308    9    2    1    1
 -0.01801725445439308    9    2    2    1
 0.1767736232744469    9    2    2    2
 0.1667975795622603    9    2    3    3
 0.1750769185427122    9    2    4    4
 0.1750769185427124    9    2    5    5
 -0.1152174042851988    9    2    6    3
 -7.551088660601168e-15    9    2    6    5
 0.1181551108558871    9    2    6    6
 -0.1128125618317614    9    2    7    4
 -0.008780729010430333    9    2    7    5
 0.1098757718754349    9    2    7    7
 7.69718490334359e-15    9    2    8    3
 0.008780729010430375    9    2    8    4
 -0.1128125618317614    9    2    8    5
 0.109875771875435    9    2    8    8
 -0.01452597029084509    9    2    9    1
 0.1033332921434985    9    2    9    2
 0.1037697349972075    9    2    9    9
 0.01859250006638177    9    3    3    1
 0.02885878891314921    9    3    3    2
 -0.02013376230971711    9    3    6    1
 -0.04122819014145127    9    3    6    2
 1.343512628648926e-15    9    3    8    1
 2.751361924407271e-15    9    3    8    2
 0.04423629727099236    9    3    9    3
 -0.004123177520752017    9    3    9    6
 0.02023963254655771    9    4    4    1
 0.0341975202110501    9    4    4    2
 -0.02030323075271267    9    4    7    1
 -0.040567341210048    9    4    7    2
 0.001580295353470239    9    4    8    1
 0.003157545791490114    9    4    8    2
 0.04459863209117407    9    4    9    4
 -0.005853494446219749    9    4    9    7
 0.0004556048339099446    9    4    9    8
 0.02023963254655773    9    5    5    1
 0.03419752021105018    9    5    5    2
 -1.359513470328329e-15    9    5    6    1
 -2.716854253842579e-15    9    5    6    2
 -0.00158029535347023    9    5    7    1
 -0.00315754579149011    9    5    7    2
 -0.02030323075271269    9    5    8    1
 -0.04056734121004802    9    5    8    2
 0.0445986320911741    9    5    9    5
 -0.0004556048339099134    9    5    9    7
 -0.005853494446219791    9    5    9    8
 -0.02506864726432271    9    6    3    1
 -0.1065695829014734    9    6    3    2
 -1.689192730828148e-15    9    6    5    1
 -7.081172284412489e-15    9    6    5    2
 0.02660795845532309    9    6    6    1
 0.01935355463406921    9    6    6    2
 -0.004123177520751975    9    6    9    3
 0.09281475473765455    9    6    9    6
 -0.02522323493656154    9    7    4    1
 -0.1057117019631376    9    7    4    2
 -0.001963242276818955    9    7    5    1
 -0.008228035895097983    9    7    5    2
 0.02496082597514711    9    7    7    1
 0.01401482333616827    9    7    7    2
 -0.005853494446219729    9    7    9    4
 -0.0004556048339099139    9    7    9    5
 0.09245241991747273    9    7    9    7
 1.672420281238822e-15    9    8    3    1
 7.106830307768537e-15    9    8    3    2
 0.001963242276818962    9    8    4    1
 0.008228035895097983    9    8    4    2
 -0.02522323493656155    9    8    5    1
 -0.1057117019631376    9    8    5    2
 0.02496082597514711    9    8    8    1
 0.01401482333616828    9    8    8    2
 0.000455604833909942    9    8    9    4
 -0.005853494446219781    9    8    9    5
 0.09245241991747277    9    8    9    8
 0.8650929966622871    9    9    1    1
 -0.01594408425331432    9    9    2    1
 0.6224089554994772    9    9    2    2
 0.6083447713106731    9    9    3    3
 0.6172305447051946    9    9    4    4
 0.617230544705195    9    9    5    5
 -0.124163263681283    9    9    6    3
 -8.052586375484339e-15    9    9    6    5
 0.5281941048301945    9    9    6    6
 -0.1205706767405797    9    9    7    4
 -0.00938457935776737    9    9    7    5
 0.5193083314356722    9    9    7    7
 8.338815749020512e-15    9    9    8    3
 0.009384579357767582    9    9    8    4
 -0.1205706767405799    9    9    8    5
 0.5193083314356723    9    9    8    8
 -0.01299768249611458    9    9    9    1
 0.1037697349972075    9    9    9    2
 0.5285862572629531    9    9    9    9
 -31.92155060083923    1    1  0  0
 0.6224420915597059    2    1  0  0
 -6.988657766693146    2    2  0  0
 -6.280563773850608    3    3  0  0
 -6.418033332912604    4    4  0  0
 -6.418033332912609    5    5  0  0
 1.934986954312083    6    3  0  0
 1.2380195790777e-13    6    5  0  0
 -4.263364005435768    6    6  0  0
 -1.000962439130952e-14    7    3  0  0
 1.85127259495636    7    4  0  0
 0.144093199523204    7    5  0  0
 -4.125894446373763    7    7  0  0
 -1.296213575562147e-13    8    3  0  0
 -0.1440931995232059    8    4  0  0
 1.851272594956362    8    5  0  0
 9.462375404706502e-15    8    6  0  0
 -4.125894446373763    8    8  0  0
 0.5045615427357293    9    1  0  0
 -1.617665514691053    9    2  0  0
 -3.972497859639129    9    9  0  0
 0  0  0  0  0
