 &FCI NORB=  22,NELEC= 8,MS2=0,
  ORBSYM=1,5,3,2,1,5,3,2,1,1,4,6,7,5,3,2,1,1,1,4,6,7
  ISYM=1,
 &END
 1.021248441346653    1    1    1    1
 0.9889787484501762    1    1    2    2
 0.9889787484501764    1    1    3    3
 0.9889787484501753    1    1    4    4
 -0.1149122782924249    1    1    5    1
 0.3974481325661627    1    1    5    5
 -0.1297273569484516    1    1    6    2
 0.3301017610244756    1    1    6    6
 -0.1297273569484509    1    1    7    3
 0.3301017610244752    1    1    7    7
 -0.1297273569484505    1    1    8    4
 0.3301017610244752    1    1    8    8
 0.646157591617497    1    1    9    9
 0.646157591617497    1    1   10   10
 0.6461575916174969    1    1   11   11
 0.6461575916174969    1    1   12   12
 0.6461575916174969    1    1   13   13
 -0.2380609983369042    1    1   14    2
 0.1292223059662832    1    1   14    6
 0.7714175353115708    1    1   14   14
 -0.2380609983369039    1    1   15    3
 0.1292223059662828    1    1   15    7
 0.7714175353115706    1    1   15   15
 -0.2380609983369047    1    1   16    4
 0.1292223059662829    1    1   16    8
 0.7714175353115713    1    1   16   16
 -0.1979087798114603    1    1   17    1
 0.1431630167920474    1    1   17    5
 0.8010555194941469    1    1   17   17
 0.125827113242708    1    1   18    9
 -0.07266407841883517    1    1   18   10
 0.9900112915362191    1    1   18   18
 0.07266407841883542    1    1   19    9
 0.1258271132427084    1    1   19   10
 0.9900112915362198    1    1   19   19
 0.1453015165765725    1    1   20   11
 0.9900112915362195    1    1   20   20
 0.1453015165765725    1    1   21   12
 0.9900112915362193    1    1   21   21
 0.1453015165765725    1    1   22   13
 0.9900112915362193    1    1   22   22
 0.1988836049723482    2    1    2    1
 -0.02016118545049111    2    1    5    2
 -0.03643690951661607    2    1    6    1
 0.03937780361554927    2    1    6    5
 0.07941469441016172    2    1    9    2
 0.0007520836269528613    2    1    9    6
 -0.05386190059228889    2    1   10    2
 -0.0005100901521172289    2    1   10    6
 0.08310143511248616    2    1   12    4
 0.0007869982902861053    2    1   12    8
 0.08310143511248606    2    1   13    3
 0.0007869982902861082    2    1   13    7
 -0.04800371221589797    2    1   14    1
 0.0465792960146403    2    1   14    5
 0.04283020135185229    2    1   14    9
 -0.02904898224057129    2    1   14   10
 0.04481854680586963    2    1   15   13
 0.0448185468058694    2    1   16   12
 -0.03417383562662769    2    1   17    2
 0.01495188250019347    2    1   17    6
 0.1285326704570002    2    1   17   14
 0.1466315178219091    2    1   18    2
 -0.04468162916522108    2    1   18    6
 -0.08866936183167806    2    1   18   14
 -0.01061477594159391    2    1   19    2
 0.003234539813399803    2    1   19    6
 0.006418847889650255    2    1   19   14
 0.1273189169577141    2    1   21    4
 -0.03879668380798915    2    1   21    8
 -0.07699086310660935    2    1   21   16
 0.1273189169577143    2    1   22    3
 -0.03879668380798918    2    1   22    7
 -0.07699086310660902    2    1   22   15
 0.9889787484501761    2    2    1    1
 1.03219890262215    2    2    2    2
 0.9301782184199089    2    2    3    3
 0.9301782184199081    2    2    4    4
 -0.1091719381801973    2    2    5    1
 0.3948669337699365    2    2    5    5
 -0.1367680376786102    2    2    6    2
 0.3376414725455109    2    2    6    6
 -0.1188517015472111    2    2    7    3
 0.3241330063209923    2    2    7    7
 -0.1188517015472108    2    2    8    4
 0.3241330063209922    2    2    8    8
 0.03276783766236305    2    2    9    1
 0.005421874217865857    2    2    9    5
 0.6428772338646028    2    2    9    9
 -0.02222432545894959    2    2   10    1
 -0.003677310003086996    2    2   10    5
 -0.02487327750358322    2    2   10    9
 0.6230736974404341    2    2   10   10
 0.6062037464791795    2    2   11   11
 0.6463613252391874    2    2   12   12
 0.6463613252391874    2    2   13   13
 -0.2526993371131596    2    2   14    2
 0.136784245682383    2    2   14    6
 0.8053637957892634    2    2   14   14
 -0.224810026408092    2    2   15    3
 0.122021640792626    2    2   15    7
 0.7393577960060796    2    2   15   15
 -0.2248100264080926    2    2   16    4
 0.1220216407926261    2    2   16    8
 0.7393577960060801    2    2   16   16
 -0.1917692386900628    2    2   17    1
 0.1387180071091332    2    2   17    5
 0.01879134744504326    2    2   17    9
 -0.0127449673589699    2    2   17   10
 0.7840506404126556    2    2   17   17
 0.0706408103528339    2    2   18    1
 -0.02181750938932151    2    2   18    5
 0.1262036349325104    2    2   18    9
 -0.07478267160309347    2    2   18   10
 -0.03305522257633958    2    2   18   17
 1.008566447004496    2    2   18   18
 -0.00511374624887038    2    2   19    1
 0.001579387414188416    2    2   19    5
 0.06061755540633771    2    2   19    9
 0.1082591156827636    2    2   19   10
 0.002392894696578888    2    2   19   17
 -0.0075286408020241    2    2   19   18
 0.9051115146107719    2    2   19   19
 0.1239445680087571    2    2   20   11
 0.9045665101230232    2    2   20   20
 0.1410908259674003    2    2   21   12
 0.9829752161499391    2    2   21   21
 0.1410908259674003    2    2   22   13
 0.9829752161499391    2    2   22   22
 0.1988836049723482    3    1    3    1
 -0.02016118545049111    3    1    5    3
 -0.03643690951661584    3    1    7    1
 0.03937780361554923    3    1    7    5
 -0.08635312141411516    3    1    9    3
 -0.0008177928434302587    3    1    9    7
 -0.04184419249683368    3    1   10    3
 -0.0003962784506529334    3    1   10    7
 0.08310143511248615    3    1   11    4
 0.0007869982902860973    3    1   11    8
 0.08310143511248612    3    1   13    2
 0.0007869982902860081    3    1   13    6
 0.04481854680586952    3    1   14   13
 -0.0480037122158978    3    1   15    1
 0.04657929601464029    3    1   15    5
 -0.04657225725034381    3    1   15    9
 -0.02256755129962108    3    1   15   10
 0.04481854680586939    3    1   16   11
 -0.03417383562662784    3    1   17    3
 0.01495188250019344    3    1   17    7
 0.1285326704570003    3    1   17   15
 -0.08250842453185482    3    1   18    3
 0.02514200823056686    3    1   18    7
 0.04989356625130419    3    1   18   15
 -0.1216792314584471    3    1   19    3
 0.03707815603285709    3    1   19    7
 0.07358049593876231    3    1   19   15
 0.1273189169577141    3    1   20    4
 -0.03879668380798915    3    1   20    8
 -0.07699086310660937    3    1   20   16
 0.1273189169577142    3    1   22    2
 -0.03879668380798934    3    1   22    6
 -0.07699086310660916    3    1   22   14
 0.05101034210112085    3    2    3    2
 -0.008958168065699202    3    2    6    3
 -0.008958168065699133    3    2    7    2
 0.006754233112259147    3    2    7    6
 0.02007878938000403    3    2   12   11
 0.03428904884039841    3    2   13    1
 0.005673578823799999    3    2   13    5
 -0.001676447756315347    3    2   13    9
 -0.02312429963355495    3    2   13   10
 -0.01394465535253367    3    2   14    3
 0.007381302444878258    3    2   14    7
 -0.01394465535253359    3    2   15    2
 0.007381302444878271    3    2   15    6
 0.03300299989159189    3    2   15   14
 0.01966371528567656    3    2   17   13
 0.004317783739169597    3    2   18   13
 -0.008908130981105962    3    2   19   13
 0.008573128979321552    3    2   20   12
 0.008573128979321552    3    2   21   11
 0.03920435301345798    3    2   21   20
 0.06133682308370852    3    2   22    1
 -0.01894396039422367    3    2   22    5
 -0.0007158002691287496    3    2   22    9
 -0.009873483882069814    3    2   22   10
 -0.02870157249089666    3    2   22   17
 0.01974494007432627    3    2   22   18
 -0.04073629505817108    3    2   22   19
 0.9889787484501763    3    3    1    1
 0.9301782184199089    3    3    2    2
 1.032198902622151    3    3    3    3
 0.9301782184199082    3    3    4    4
 -0.1091719381801973    3    3    5    1
 0.3948669337699364    3    3    5    5
 -0.1188517015472119    3    3    6    2
 0.3241330063209926    3    3    6    6
 -0.1367680376786095    3    3    7    3
 0.3376414725455105    3    3    7    7
 -0.1188517015472108    3    3    8    4
 0.3241330063209921    3    3    8    8
 -0.03563074926060535    3    3    9    1
 -0.005895580989196791    3    3    9    5
 0.6495654717399593    3    3    9    9
 -0.01726561711321607    3    3   10    1
 -0.002856825807252242    3    3   10    5
 0.02101182156584222    3    3   10    9
 0.6163854595650775    3    3   10   10
 0.6463613252391873    3    3   11   11
 0.6062037464791795    3    3   12   12
 0.6463613252391874    3    3   13   13
 -0.2248100264080924    3    3   14    2
 0.1220216407926265    3    3   14    6
 0.7393577960060798    3    3   14   14
 -0.2526993371131596    3    3   15    3
 0.1367842456823826    3    3   15    7
 0.8053637957892633    3    3   15   15
 -0.2248100264080929    3    3   16    4
 0.1220216407926261    3    3   16    8
 0.7393577960060802    3    3   16   16
 -0.1917692386900631    3    3   17    1
 0.1387180071091333    3    3   17    5
 -0.02043313922579287    3    3   17    9
 -0.009901300579262223    3    3   17   10
 0.7840506404126557    3    3   17   17
 -0.03974903933644603    3    3   18    1
 0.012276544317765    3    3   18    5
 0.1188789207321747    3    3   18    9
 -0.05638862969103652    3    3   18   10
 0.01859991888398824    3    3   18   17
 0.937495241899723    3    3   18   18
 -0.05861986318503776    3    3   19    1
 0.01810482367136357    3    3   19    5
 0.0790115973183948    3    3   19    9
 0.1155838298830996    3    3   19   10
 0.02743021513056958    3    3   19   17
 0.04856162020089599    3    3   19   18
 0.976182719715545    3    3   19   19
 0.1410908259674004    3    3   20   11
 0.9829752161499394    3    3   20   20
 0.1239445680087572    3    3   21   12
 0.9045665101230236    3    3   21   21
 0.1410908259674003    3    3   22   13
 0.9829752161499394    3    3   22   22
 0.1988836049723481    4    1    4    1
 -0.02016118545049097    4    1    5    4
 -0.03643690951661577    4    1    8    1
 0.03937780361554923    4    1    8    5
 0.006938427003953445    4    1    9    4
 6.570921647737311e-05    4    1    9    8
 0.09570609308912269    4    1   10    4
 0.0009063686027701957    4    1   10    8
 0.08310143511248606    4    1   11    3
 0.0007869982902861133    4    1   11    7
 0.08310143511248612    4    1   12    2
 0.000786998290286021    4    1   12    6
 0.04481854680586956    4    1   14   12
 0.04481854680586965    4    1   15   11
 -0.0480037122158982    4    1   16    1
 0.04657929601464033    4    1   16    5
 0.003742055898491635    4    1   16    9
 0.05161653354019207    4    1   16   10
 -0.03417383562662745    4    1   17    4
 0.01495188250019337    4    1   17    8
 0.1285326704570003    4    1   17   16
 -0.06412309329005429    4    1   18    4
 0.01953962093465404    4    1   18    8
 0.03877579558037379    4    1   18   16
 0.1322940074000408    4    1   19    4
 -0.04031269584625684    4    1   19    8
 -0.0799993438284128    4    1   19   16
 0.1273189169577142    4    1   20    3
 -0.03879668380798917    4    1   20    7
 -0.07699086310660896    4    1   20   15
 0.1273189169577141    4    1   21    2
 -0.03879668380798933    4    1   21    6
 -0.0769908631066091    4    1   21   14
 0.05101034210112078    4    2    4    2
 -0.008958168065699174    4    2    6    4
 -0.008958168065699107    4    2    8    2
 0.006754233112259148    4    2    8    6
 0.03428904884039841    4    2   12    1
 0.005673578823800015    4    2   12    5
 0.02086445480553947    4    2   12    9
 0.01011030347169096    4    2   12   10
 0.02007878938000405    4    2   13   11
 -0.01394465535253355    4    2   14    4
 0.00738130244487824    4    2   14    8
 -0.01394465535253367    4    2   16    2
 0.007381302444878286    4    2   16    6
 0.0330029998915919    4    2   16   14
 0.01966371528567659    4    2   17   12
 0.00555577586029213    4    2   18   12
 0.008193375896721212    4    2   19   12
 0.00857312897932154    4    2   20   13
 0.06133682308370847    4    2   21    1
 -0.01894396039422366    4    2   21    5
 0.008908588000293002    4    2   21    9
 0.004316840723933715    4    2   21   10
 -0.02870157249089663    4    2   21   17
 0.02540619633927146    4    2   21   18
 0.03746776722965348    4    2   21   19
 0.00857312897932154    4    2   22   11
 0.03920435301345795    4    2   22   20
 0.0510103421011208    4    3    4    3
 -0.008958168065699119    4    3    7    4
 -0.008958168065699127    4    3    8    3
 0.006754233112259131    4    3    8    7
 0.0342890488403984    4    3   11    1
 0.005673578823800025    4    3   11    5
 -0.01918800704922408    4    3   11    9
 0.01301399616186399    4    3   11   10
 0.02007878938000404    4    3   13   12
 -0.01394465535253353    4    3   15    4
 0.007381302444878237    4    3   15    8
 -0.01394465535253372    4    3   16    3
 0.007381302444878268    4    3   16    7
 0.03300299989159189    4    3   16   15
 0.01966371528567658    4    3   17   11
 -0.009873559599461748    4    3   18   11
 0.0007147550843847397    4    3   19   11
 0.06133682308370849    4    3   20    1
 -0.01894396039422365    4    3   20    5
 -0.008192787731164313    4    3   20    9
 0.005556643158136126    4    3   20   10
 -0.02870157249089663    4    3   20   17
 -0.04515113641359775    4    3   20   18
 0.003268527828517579    4    3   20   19
 0.008573128979321545    4    3   21   13
 0.008573128979321545    4    3   22   12
 0.03920435301345796    4    3   22   21
 0.9889787484501752    4    4    1    1
 0.930178218419908    4    4    2    2
 0.9301782184199081    4    4    3    3
 1.032198902622149    4    4    4    4
 -0.1091719381801971    4    4    5    1
 0.3948669337699363    4    4    5    5
 -0.1188517015472117    4    4    6    2
 0.3241330063209925    4    4    6    6
 -0.118851701547211    4    4    7    3
 0.3241330063209921    4    4    7    7
 -0.1367680376786088    4    4    8    4
 0.3376414725455104    4    4    8    8
 0.002862911598241963    4    4    9    1
 0.000473706771331104    4    4    9    5
 0.6064836913529926    4    4    9    9
 0.03948994257216588    4    4   10    1
 0.006534135810339172    4    4   10    5
 0.003861455937741523    4    4   10    9
 0.6594672399520435    4    4   10   10
 0.6463613252391871    4    4   11   11
 0.6463613252391871    4    4   12   12
 0.6062037464791792    4    4   13   13
 -0.2248100264080918    4    4   14    2
 0.1220216407926263    4    4   14    6
 0.739357796006079    4    4   14   14
 -0.2248100264080916    4    4   15    3
 0.1220216407926258    4    4   15    7
 0.7393577960060788    4    4   15   15
 -0.2526993371131595    4    4   16    4
 0.1367842456823825    4    4   16    8
 0.8053637957892632    4    4   16   16
 -0.1917692386900625    4    4   17    1
 0.1387180071091331    4    4   17    5
 0.001641791780749761    4    4   17    9
 0.02264626793823212    4    4   17   10
 0.784050640412655    4    4   17   17
 -0.03089177101638773    4    4   18    1
 0.00954096507155586    4    4   18    5
 0.1066115702582253    4    4   18    9
 -0.07192903922001642    4    4   18   10
 0.01445530369235144    4    4   18   17
 0.9244552535186805    4    4   18   18
 0.06373360943390806    4    4   19    1
 -0.01968421108555193    4    4   19    5
 0.06347118778941467    4    4   19    9
 0.1278511803570484    4    4   19   10
 -0.02982310982714842    4    4   19   17
 -0.04103297939887188    4    4   19   18
 0.9892227080965855    4    4   19   19
 0.1410908259674001    4    4   20   11
 0.9829752161499383    4    4   20   20
 0.1410908259674    4    4   21   12
 0.9829752161499383    4    4   21   21
 0.1239445680087569    4    4   22   13
 0.9045665101230225    4    4   22   22
 -0.1149122782924249    5    1    1    1
 -0.1091719381801973    5    1    2    2
 -0.1091719381801973    5    1    3    3
 -0.1091719381801969    5    1    4    4
 0.02365077574211812    5    1    5    1
 -0.008971208434918724    5    1    5    5
 0.02416612140119993    5    1    6    2
 -0.006698078759421026    5    1    6    6
 0.02416612140119983    5    1    7    3
 -0.006698078759421007    5    1    7    7
 0.02416612140119979    5    1    8    4
 -0.006698078759420996    5    1    8    8
 -0.03286809044798362    5    1    9    9
 -0.03286809044798359    5    1   10   10
 -0.03286809044798358    5    1   11   11
 -0.0328680904479836    5    1   12   12
 -0.0328680904479836    5    1   13   13
 0.05566404171789873    5    1   14    2
 -0.01714009892988034    5    1   14    6
 -0.06940801310728988    5    1   14   14
 0.05566404171789872    5    1   15    3
 -0.0171400989298802    5    1   15    7
 -0.06940801310728975    5    1   15   15
 0.0556640417178989    5    1   16    4
 -0.01714009892988027    5    1   16    8
 -0.0694080131072902    5    1   16   16
 0.04815695972635716    5    1   17    1
 -0.01969760939125114    5    1   17    5
 -0.07296853957586347    5    1   17   17
 -0.02493311147883544    5    1   18    9
 0.01439865797627408    5    1   18   10
 -0.1085018583289615    5    1   18   18
 -0.01439865797627416    5    1   19    9
 -0.02493311147883553    5    1   19   10
 -0.1085018583289616    5    1   19   19
 -0.0287920370855166    5    1   20   11
 -0.1085018583289618    5    1   20   20
 -0.02879203708551664    5    1   21   12
 -0.1085018583289616    5    1   21   21
 -0.02879203708551664    5    1   22   13
 -0.1085018583289616    5    1   22   22
 -0.02016118545049108    5    2    2    1
 0.01188081722808591    5    2    5    2
 0.007657823313436484    5    2    6    1
 0.01361186589912212    5    2    6    5
 0.001746286346201528    5    2    9    2
 0.00521979147731527    5    2    9    6
 -0.001184394176460395    5    2   10    2
 -0.003540250223863567    5    2   10    6
 0.001827355788050708    5    2   12    4
 0.005462114612095225    5    2   12    8
 0.001827355788050706    5    2   13    3
 0.00546211461209523    5    2   13    7
 0.02003100180707569    5    2   14    1
 0.002056919128824606    5    2   14    5
 0.01131725351210741    5    2   14    9
 -0.007675768170794124    5    2   14   10
 0.01184264468148113    5    2   15   13
 0.01184264468148113    5    2   16   12
 0.01952110276453036    5    2   17    2
 -0.007084065334921837    5    2   17    6
 -0.00312522383449484    5    2   17   14
 -0.0240365614253603    5    2   18    2
 0.002121625808362251    5    2   18    6
 0.007041940120279087    5    2   18   14
 0.00174002641264643    5    2   19    2
 -0.0001535862338615421    5    2   19    6
 -0.0005097718258749119    5    2   19   14
 -0.02087074466337673    5    2   21    4
 0.00184218989288707    5    2   21    8
 0.006114457537593947    5    2   21   16
 -0.02087074466337674    5    2   22    3
 0.00184218989288708    5    2   22    7
 0.006114457537593888    5    2   22   15
 -0.02016118545049114    5    3    3    1
 0.01188081722808586    5    3    5    3
 0.007657823313436456    5    3    7    1
 0.01361186589912207    5    3    7    5
 -0.001898858618009773    5    3    9    3
 -0.005675842368276998    5    3    9    7
 -0.0009201312498622114    5    3   10    3
 -0.002750346909880748    5    3   10    7
 0.001827355788050696    5    3   11    4
 0.005462114612095203    5    3   11    8
 0.001827355788050671    5    3   13    2
 0.005462114612095218    5    3   13    6
 0.01184264468148109    5    3   14   13
 0.02003100180707564    5    3   15    1
 0.002056919128824639    5    3   15    5
 -0.01230603698552144    5    3   15    9
 -0.005963144957156595    5    3   15   10
 0.01184264468148111    5    3   16   11
 0.01952110276453037    5    3   17    3
 -0.007084065334921789    5    3   17    7
 -0.003125223834494826    5    3   17   15
 0.01352518778928783    5    3   18    3
 -0.001193822484376791    5    3   18    7
 -0.00396244541148077    5    3   18   15
 0.0199462596076639    5    3   19    3
 -0.001760588730435606    5    3   19    7
 -0.005843613123153118    5    3   19   15
 -0.02087074466337668    5    3   20    4
 0.001842189892887081    5    3   20    8
 0.006114457537593948    5    3   20   16
 -0.02087074466337674    5    3   22    2
 0.001842189892887108    5    3   22    6
 0.006114457537593935    5    3   22   14
 -0.020161185450491    5    4    4    1
 0.01188081722808587    5    4    5    4
 0.007657823313436432    5    4    8    1
 0.0136118658991221    5    4    8    5
 0.0001525722718082958    5    4    9    4
 0.0004560508909617738    5    4    9    8
 0.002104525426322676    5    4   10    4
 0.006290597133744283    5    4   10    8
 0.001827355788050749    5    4   11    3
 0.005462114612095221    5    4   11    7
 0.001827355788050724    5    4   12    2
 0.005462114612095227    5    4   12    6
 0.01184264468148113    5    4   14   12
 0.01184264468148116    5    4   15   11
 0.02003100180707568    5    4   16    1
 0.002056919128824635    5    4   16    5
 0.000988783473414002    5    4   16    9
 0.01363891312795079    5    4   16   10
 0.01952110276453036    5    4   17    4
 -0.00708406533492178    5    4   17    8
 -0.003125223834494795    5    4   17   16
 0.01051137363607238    5    4   18    4
 -0.0009278033239854329    5    4   18    8
 -0.003079494708798297    5    4   18   16
 -0.02168628602031025    5    4   19    4
 0.001914174964297119    5    4   19    8
 0.006353384949028028    5    4   19   16
 -0.02087074466337667    5    4   20    3
 0.001842189892887069    5    4   20    7
 0.006114457537593843    5    4   20   15
 -0.02087074466337669    5    4   21    2
 0.001842189892887086    5    4   21    6
 0.00611445753759389    5    4   21   14
 0.3974481325661628    5    5    1    1
 0.3948669337699366    5    5    2    2
 0.3948669337699362    5    5    3    3
 0.3948669337699361    5    5    4    4
 -0.008971208434918755    5    5    5    1
 0.3162830433051034    5    5    5    5
 -0.01384927505277474    5    5    6    2
 0.2800924981655445    5    5    6    6
 -0.01384927505277465    5    5    7    3
 0.2800924981655447    5    5    7    7
 -0.01384927505277457    5    5    8    4
 0.2800924981655447    5    5    8    8
 0.37291973463211    5    5    9    9
 0.37291973463211    5    5   10   10
 0.3729197346321096    5    5   11   11
 0.3729197346321096    5    5   12   12
 0.3729197346321096    5    5   13   13
 -0.01409477631030372    5    5   14    2
 0.03421259573805311    5    5   14    6
 0.3707575182211333    5    5   14   14
 -0.01409477631030369    5    5   15    3
 0.03421259573805288    5    5   15    7
 0.3707575182211331    5    5   15   15
 -0.01409477631030398    5    5   16    4
 0.03421259573805313    5    5   16    8
 0.3707575182211332    5    5   16   16
 -0.01187681542639199    5    5   17    1
 0.0292387487478895    5    5   17    5
 0.3741595004623259    5    5   17   17
 0.008329166244019423    5    5   18    9
 -0.004810022049472789    5    5   18   10
 0.3947307085536394    5    5   18   18
 0.004810022049473023    5    5   19    9
 0.008329166244019847    5    5   19   10
 0.3947307085536397    5    5   19   19
 0.009618280638291812    5    5   20   11
 0.3947307085536392    5    5   20   20
 0.009618280638291831    5    5   21   12
 0.3947307085536395    5    5   21   21
 0.009618280638291831    5    5   22   13
 0.3947307085536395    5    5   22   22
 -0.03643690951661609    6    1    2    1
 0.007657823313436489    6    1    5    2
 0.008274976016907182    6    1    6    1
 -0.0002977856300646555    6    1    6    5
 -0.01055730376487981    6    1    9    2
 0.001983868085225033    6    1    9    6
 0.007160342933130932    6    1   10    2
 -0.001345530652585782    6    1   10    6
 -0.0110474150948531    6    1   12    4
 0.002075967000572677    6    1   12    8
 -0.01104741509485309    6    1   13    3
 0.002075967000572678    6    1   13    7
 0.01498402293662731    6    1   14    1
 -0.005752538399356032    6    1   14    5
 -0.001461084398358281    6    1   14    9
 0.0009909599628358974    6    1   14   10
 -0.001528913650374769    6    1   15   13
 -0.00152891365037474    6    1   16   12
 0.01283701791703283    6    1   17    2
 -0.004906471657010503    6    1   17    6
 -0.01950691855403399    6    1   17   14
 -0.03060431322977455    6    1   18    2
 0.00723357028992742    6    1   18    6
 0.01546235834943364    6    1   18   14
 0.002215471357085521    6    1   19    2
 -0.0005236440911605795    6    1   19    6
 -0.001119332813612515    6    1   19   14
 -0.02657346846386758    6    1   21    4
 0.00628084840647707    6    1   21    8
 0.0134258360542444    6    1   21   16
 -0.02657346846386761    6    1   22    3
 0.00628084840647708    6    1   22    7
 0.01342583605424433    6    1   22   15
 -0.1297273569484516    6    2    1    1
 -0.1367680376786102    6    2    2    2
 -0.1188517015472119    6    2    3    3
 -0.1188517015472117    6    2    4    4
 0.02416612140119997    6    2    5    1
 -0.01384927505277486    6    2    5    5
 0.02971622983554125    6    2    6    2
 -0.006239269937526173    6    2    6    6
 0.02398637791850407    6    2    7    3
 -0.01072588354402744    6    2    7    7
 0.02398637791850401    6    2    8    4
 -0.01072588354402743    6    2    8    8
 -0.003398908603371182    6    2    9    1
 0.002704062753875014    6    2    9    5
 -0.04794246392653416    6    2    9    9
 0.002305262000650962    6    2   10    1
 -0.001833992566820107    6    2   10    5
 0.0001597678975866571    6    2   10    9
 -0.04781526036927014    6    2   10   10
 -0.04770690003770226    6    2   11   11
 -0.04796484320300204    6    2   12   12
 -0.04796484320300204    6    2   13   13
 0.06350601429567435    6    2   14    2
 -0.02167021861284602    6    2   14    6
 -0.08779336580317341    6    2   14   14
 0.05199924263543014    6    2   15    3
 -0.01925994741505173    6    2   15    7
 -0.08112305067976026    6    2   15   15
 0.05199924263543022    6    2   16    4
 -0.01925994741505174    6    2   16    8
 -0.08112305067976039    6    2   16   16
 0.04654381166967465    6    2   17    1
 -0.02330309746525527    6    2   17    5
 0.0007555380620638511    6    2   17    9
 -0.0005124330741914518    6    2   17   10
 -0.08693757143334958    6    2   17   17
 -0.01537482911721717    6    2   18    1
 0.002065357850075568    6    2   18    5
 -0.02884003349717818    6    2   18    9
 0.01731251884552566    6    2   18   10
 0.006170305845032096    6    2   18   17
 -0.1320481145805625    6    2   18   18
 0.001112996500641617    6    2   19    1
 -0.0001495129501720852    6    2   19    5
 -0.01241252679921188    6    2   19    9
 -0.02263267166707739    6    2   19   10
 -0.0004466735051850952    6    2   19   17
 0.001365827689894136    6    2   19   18
 -0.1132795725508399    6    2   19   19
 -0.02576544500581035    6    2   20   11
 -0.1131806991631917    6    2   20   20
 -0.0316966725689586    6    2   21   12
 -0.1274054157669559    6    2   21   21
 -0.0316966725689586    6    2   22   13
 -0.1274054157669559    6    2   22   22
 -0.008958168065699202    6    3    3    2
 0.002864925958518516    6    3    6    3
 0.002864925958518508    6    3    7    2
 0.002243306803250658    6    3    7    6
 -0.0001289715826499583    6    3   12   11
 -0.00355669923374006    6    3   13    1
 0.002829595922394945    6    3   13    5
 1.076828469436322e-05    6    3   13    9
 0.0001485337320377294    6    3   13   10
 0.005753385830122086    6    3   14    3
 -0.001205135598897106    6    3   14    7
 0.005753385830122077    6    3   15    2
 -0.001205135598897111    6    3   15    6
 -0.003335157561706614    6    3   15   14
 0.0007906130937850757    6    3   17   13
 -0.001493606242670959    6    3   18   13
 0.003081497557001143    6    3   19   13
 -0.002965613781574106    6    3   20   12
 -0.002965613781574106    6    3   21   11
 -0.007112358301882247    6    3   21   20
 -0.01334983515611902    6    3   22    1
 0.001793332896690758    6    3   22    5
 0.0002476093790380126    6    3   22    9
 0.003415432095264386    6    3   22   10
 0.005357624807795312    6    3   22   17
 -0.003582078969893835    6    3   22   18
 0.007390279498948742    6    3   22   19
 -0.008958168065699174    6    4    4    2
 0.002864925958518511    6    4    6    4
 0.002864925958518502    6    4    8    2
 0.002243306803250655    6    4    8    6
 -0.00355669923374005    6    4   12    1
 0.002829595922394948    6    4   12    5
 -0.000134018127610755    6    4   12    9
 -6.494125791836459e-05    6    4   12   10
 -0.0001289715826499515    6    4   13   11
 0.005753385830122074    6    4   14    4
 -0.001205135598897099    6    4   14    8
 0.005753385830122091    6    4   16    2
 -0.00120513559889711    6    4   16    6
 -0.003335157561706617    6    4   16   14
 0.0007906130937850825    6    4   17   12
 -0.001921852044727197    6    4   18   12
 -0.002834249727904645    6    4   19   12
 -0.002965613781574105    6    4   20   13
 -0.013349835156119    6    4   21    1
 0.001793332896690752    6    4   21    5
 -0.003081655648918675    6    4   21    9
 -0.001493280035169987    6    4   21   10
 0.0053576248077953    6    4   21   17
 -0.00460913030221001    6    4   21   18
 -0.006797311135764417    6    4   21   19
 -0.002965613781574105    6    4   22   11
 -0.007112358301882236    6    4   22   20
 0.03937780361554927    6    5    2    1
 0.01361186589912211    6    5    5    2
 -0.0002977856300646587    6    5    6    1
 0.0587035947127373    6    5    6    5
 0.02822920533478296    6    5    9    2
 0.01113567722719386    6    5    9    6
 -0.01914606185712192    6    5   10    2
 -0.007552616606961133    6    5   10    6
 0.02953971544975612    6    5   12    4
 0.01165263891528403    6    5   12    8
 0.02953971544975604    6    5   13    3
 0.01165263891528403    6    5   13    7
 0.007761360951460885    6    5   14    1