 &FCI NORB=  8,NELEC= 10,MS2= 0,
  ORBSYM=1,1,2,3,5,5,6,7,
  ISYM=1,
  OCC=  2,  1,  1,  0,  1,  0,  0,  0,
  CLOSED=  2,  1,  1,  0,  1,  0,  0,  0,
 /
  0.4381199749427691E+00   1   1   1   1
  0.1330968052648188E-01   2   1   1   1
  0.7359804360457159E-01   2   1   2   1
  0.4311225739864095E+00   2   2   1   1
  0.1653271285887250E-01   2   2   2   1
  0.4492213164783657E+00   2   2   2   2
  0.4278660853532474E+00   3   3   1   1
  0.1262542528185851E-01   3   3   2   1
  0.4104697733490495E+00   3   3   2   2
  0.4429969509187561E+00   3   3   3   3
  0.4278660853532473E+00   4   4   1   1
  0.1262542528185851E-01   4   4   2   1
  0.4104697733490495E+00   4   4   2   2
  0.4081992894241928E+00   4   4   3   3
  0.4429969509187558E+00   4   4   4   4
  0.4410137144191775E+00   5   5   1   1
  0.9041098315408991E-02   5   5   2   1
  0.4323611760901561E+00   5   5   2   2
  0.4311670701094104E+00   5   5   3   3
  0.4311670701094101E+00   5   5   4   4
  0.4444820268935771E+00   5   5   5   5
 -0.1987669699156437E-01   6   5   1   1
 -0.7382777978362581E-01   6   5   2   1
 -0.2006564847320897E-01   6   5   2   2
 -0.2001959075603537E-01   6   5   3   3
 -0.2001959075603537E-01   6   5   4   4
 -0.1626719896972354E-01   6   5   5   5
  0.7545632410153753E-01   6   5   6   5
  0.4457614128741602E+00   6   6   1   1
  0.1636331962085701E-01   6   6   2   1
  0.4625725101914391E+00   6   6   2   2
  0.4246385780138163E+00   6   6   3   3
  0.4246385780138161E+00   6   6   4   4
  0.4481503771513074E+00   6   6   5   5
 -0.2224482315658525E-01   6   6   6   5
  0.4807582041241070E+00   6   6   6   6
  0.4327566616059350E+00   7   7   1   1
  0.1037781229721608E-01   7   7   2   1
  0.4142400311797110E+00   7   7   2   2
  0.4485403229604996E+00   7   7   3   3
  0.4128103787977580E+00   7   7   4   4
  0.4364524455092063E+00   7   7   5   5
 -0.1829400546128780E-01   7   7   6   5
  0.4293479960107007E+00   7   7   6   6
  0.4544950345465972E+00   7   7   7   7
  0.4327566616059352E+00   8   8   1   1
  0.1037781229721612E-01   8   8   2   1
  0.4142400311797110E+00   8   8   2   2
  0.4128103787977583E+00   8   8   3   3
  0.4485403229604996E+00   8   8   4   4
  0.4364524455092064E+00   8   8   5   5
 -0.1829400546128785E-01   8   8   6   5
  0.4293479960107008E+00   8   8   6   6
  0.4177293033140381E+00   8   8   7   7
  0.4544950345465975E+00   8   8   8   8
  0.7005632883722479E-01   3   1   3   1
  0.1998147676313301E-03   3   2   3   1
  0.1774808086793366E-01   3   2   3   2
 -0.7161783619913137E-01   7   5   3   1
  0.6724697383357880E-03   7   5   3   2
  0.7335133519431326E-01   7   5   7   5
  0.3868709434232003E-02   7   6   3   1
  0.1818362419825394E-01   7   6   3   2
 -0.3249360383805115E-02   7   6   7   5
  0.1922251669045541E-01   7   6   7   6
  0.7005632883722475E-01   4   1   4   1
  0.1998147676313343E-03   4   2   4   1
  0.1774808086793366E-01   4   2   4   2
 -0.7161783619913134E-01   8   5   4   1
  0.6724697383357754E-03   8   5   4   2
  0.7335133519431328E-01   8   5   8   5
  0.3868709434232025E-02   8   6   4   1
  0.1818362419825394E-01   8   6   4   2
 -0.3249360383805148E-02   8   6   8   5
  0.1922251669045542E-01   8   6   8   6
  0.1739883074175532E-01   4   3   4   3
  0.1786497208029483E-01   8   7   4   3
  0.1838286558953647E-01   8   7   8   7
  0.2424670403659278E+00   5   1   5   1
 -0.2543368963933194E-01   5   2   5   1
  0.6357118099944607E-01   5   2   5   2
  0.6038390626020421E-02   6   1   5   1
 -0.6463547625871180E-01   6   1   5   2
  0.6743419965964766E-01   6   1   6   1
 -0.2321350956428785E+00   6   2   5   1
  0.2408368442809959E-01   6   2   5   2
 -0.5725886395180364E-02   6   2   6   1
  0.2466883068178411E+00   6   2   6   2
 -0.2366109689622992E+00   7   3   5   1
  0.2305873322979130E-01   7   3   5   2
 -0.3909000008686991E-02   7   3   6   1
  0.2164506374965649E+00   7   3   6   2
  0.2558053473087664E+00   7   3   7   3
 -0.2366109689622992E+00   8   4   5   1
  0.2305873322979127E-01   8   4   5   2
 -0.3909000008686987E-02   8   4   6   1
  0.2164506374965649E+00   8   4   6   2
  0.2205378234143675E+00   8   4   7   3
  0.2558053473087664E+00   8   4   8   4
  0.6699263531166023E-01   5   3   5   3
 -0.2622192666804770E-02   6   3   5   3
  0.1833497023139341E-01   6   3   6   3
 -0.6686528560244756E-01   7   1   5   3
  0.2645345397331470E-02   7   1   6   3
  0.6673913943773270E-01   7   1   7   1
  0.3024567717162124E-02   7   2   5   3
  0.1731899955661426E-01   7   2   6   3
 -0.2992268969951973E-02   7   2   7   1
  0.1682618242023808E-01   7   2   7   2
  0.6699263531166023E-01   5   4   5   4
 -0.2622192666804772E-02   6   4   5   4
  0.1833497023139340E-01   6   4   6   4
 -0.6686528560244756E-01   8   1   5   4
  0.2645345397331481E-02   8   1   6   4
  0.6673913943773273E-01   8   1   8   1
  0.3024567717162103E-02   8   2   5   4
  0.1731899955661426E-01   8   2   6   4
 -0.2992268969951945E-02   8   2   8   1
  0.1682618242023809E-01   8   2   8   2
  0.1763376193857639E-01   7   4   7   4
  0.1763376193866876E-01   8   3   7   4
  0.1763376193857640E-01   8   3   8   3
 -0.4429150866045306E+01   1   1   0   0
 -0.1492729770758797E+00   2   1   0   0
 -0.3986799542478778E+01   2   2   0   0
 -0.3931000372673752E+01   3   3   0   0
 -0.3931000372673759E+01   4   4   0   0
 -0.4424960790820100E+01   5   5   0   0
  0.1729996301274387E+00   6   5   0   0
 -0.4022460592328542E+01   6   6   0   0
 -0.3949622753054983E+01   7   7   0   0
 -0.3949622753054984E+01   8   8   0   0
 -0.8445868941793204E+02   0   0   0   0
