 &FCI NORB= 18,NELEC= 9, MS2= 0, 
  ORBSYM = 1,1,1,1,1,1,1,1,1,
  ISYM=0,UHF=T 
  /
   10.00000000E-01   2   2   1   1
   -1.45006000E-01   1   3   0   0
   8.15246000E-02   1   5   0   0
   -2.26323000E-01   1   7   0   0
   -2.19808000E-01   1   9   0   0
   -1.45006000E-01   1   11   0   0
   8.15246000E-02   1   13   0   0
   -2.26323000E-01   1   15   0   0
   -2.19808000E-01   1   17   0   0
   -1.45006000E-01   2   4   0   0
   8.15246000E-02   2   6   0   0
   -2.26323000E-01   2   8   0   0
   -2.19808000E-01   2   10   0   0
   -1.45006000E-01   2   12   0   0
   8.15246000E-02   2   14   0   0
   -2.26323000E-01   2   16   0   0
   -2.19808000E-01   2   18   0   0
   -1.45006000E-01   3   1   0   0
   1.48434000E-01   3   3   0   0
   -1.45006000E-01   4   2   0   0
   1.48434000E-01   4   4   0   0
   8.15246000E-02   5   1   0   0
   3.17494000E-02   5   5   0   0
   8.15246000E-02   6   2   0   0
   3.17494000E-02   6   6   0   0
   -2.26323000E-01   7   1   0   0
   7.89315000E-01   7   7   0   0
   -2.26323000E-01   8   2   0   0
   7.89315000E-01   8   8   0   0
   -2.19808000E-01   9   1   0   0
   3.95886000E-01   9   9   0   0
   -2.19808000E-01   10   2   0   0
   3.95886000E-01   10   10   0   0
   -1.45006000E-01   11   1   0   0
   -1.48434000E-01   11   11   0   0
   -1.45006000E-01   12   2   0   0
   -1.48434000E-01   12   12   0   0
   8.15246000E-02   13   1   0   0
   -3.17494000E-02   13   13   0   0
   8.15246000E-02   14   2   0   0
   -3.17494000E-02   14   14   0   0
   -2.26323000E-01   15   1   0   0
   -7.89315000E-01   15   15   0   0
   -2.26323000E-01   16   2   0   0
   -7.89315000E-01   16   16   0   0
   -2.19808000E-01   17   1   0   0
   -3.95886000E-01   17   17   0   0
   -2.19808000E-01   18   2   0   0
   -3.95886000E-01   18   18   0   0
   -5.00000000E-01   1   1   0   0
   -5.00000000E-01   2   2   0   0
