 &FCI NORB= 14,NELEC=  3,MS2= 1,
    ORBSYM=1,1,1,1,1,1,1,1,1,1,1,1,1,1,
    ISYM=1,
 &End
   1.59782214533586                1           1           1           1
 -9.615355263398373E-002           1           1           1           2
  6.713638251055574E-002           1           1           1           6
 -0.138189859415646                1           1           2           1
  0.314048265102269                1           1           2           2
 -0.106488261513799                1           1           2           6
  0.189328330203513                1           1           3           3
  1.279904107596115E-002           1           1           3           7
  8.428241052576020E-002           1           1           3           8
  4.123231513113384E-002           1           1           3           9
  0.189328330203513                1           1           4           4
  1.838725336629775E-002           1           1           4           7
  3.855423363555757E-002           1           1           4           8
 -8.451582082656749E-002           1           1           4           9
  0.189328330203513                1           1           5           5
  9.200835532031568E-002           1           1           5           7
 -1.942911043542970E-002           1           1           5           8
  1.115420129406180E-002           1           1           5           9
  8.439962428353494E-002           1           1           6           1
 -0.107085617999093                1           1           6           2
  0.224207409983900                1           1           6           6
  1.366338236001276E-002           1           1           7           3
  1.962897624932355E-002           1           1           7           4
  9.822183799523290E-002           1           1           7           5
  0.317734133425662                1           1           7           7
  8.997414684447733E-002           1           1           8           3
  4.115786742408973E-002           1           1           8           4
 -2.074119172043164E-002           1           1           8           5
  0.317734133425662                1           1           8           8
  4.401680437476950E-002           1           1           9           3
 -9.022331974483511E-002           1           1           9           4
  1.190746371519639E-002           1           1           9           5
  0.317734133425662                1           1           9           9
  0.292076443949184                1           1          10          10
  0.292076457431973                1           1          11          11
  0.292076457433387                1           1          12          12
  0.292076443947718                1           1          13          13
  0.292076457433374                1           1          14          14
 -9.615355263398384E-002           1           2           1           1
  4.142695549981300E-003           1           2           1           2
 -3.295631145985172E-003           1           2           1           6
  1.345091555031982E-002           1           2           2           1
 -2.587051252753025E-002           1           2           2           2
  5.460470896959357E-003           1           2           2           6
 -1.974942963127407E-002           1           2           3           3
 -6.280083565901145E-004           1           2           3           7
 -4.135470603586696E-003           1           2           3           8
 -2.023138945349816E-003           1           2           3           9
 -1.974942963127407E-002           1           2           4           4
 -9.022042120376236E-004           1           2           4           7
 -1.891733979237936E-003           1           2           4           8
  4.146923306844016E-003           1           2           4           9
 -1.974942963127408E-002           1           2           5           5
 -4.514558213723955E-003           1           2           5           7
  9.533248344267670E-004           1           2           5           8
 -5.473012846966756E-004           1           2           5           9
 -6.583090672034244E-003           1           2           6           1
  3.774853696015630E-003           1           2           6           2
 -2.062970434732320E-002           1           2           6           6
 -5.965625483725238E-004           1           2           7           3
 -8.570287930688687E-004           1           2           7           4
 -4.288504005549510E-003           1           2           7           5
 -2.376129536484334E-002           1           2           7           7
 -3.928398175130544E-003           1           2           8           3
 -1.797010551937045E-003           1           2           8           4
  9.055896895073239E-004           1           2           8           5
 -2.376129536484333E-002           1           2           8           8
 -1.921835772222564E-003           1           2           9           3
  3.939277415461101E-003           1           2           9           4
 -5.198966633167000E-004           1           2           9           5
 -2.376129536484332E-002           1           2           9           9
 -2.536223111736812E-002           1           2          10          10
 -2.536223868951249E-002           1           2          11          11
 -2.536223869030692E-002           1           2          12          12
 -2.536223111654490E-002           1           2          13          13
 -2.536223869029917E-002           1           2          14          14
  2.185822476609794E-004           1           3           1           3
  8.810114165389363E-005           1           3           1           7
  5.801510085476453E-004           1           3           1           8
  2.838192341540872E-004           1           3           1           9
  6.201459772359763E-004           1           3           2           3
  1.233398718947579E-004           1           3           2           7
  8.122000433886415E-004           1           3           2           8
  3.973413661239012E-004           1           3           2           9
  7.123998062008133E-004           1           3           3           1
  6.739930224075922E-004           1           3           3           2
 -1.841764313952482E-004           1           3           3           6
  5.643459891015711E-006           1           3           3          10
 -1.679571718093393E-004           1           3           3          11
  1.353187132725198E-005           1           3           3          12
 -3.895984627366489E-005           1           3           3          13
  3.430147926362017E-004           1           3           3          14
 -2.353953049749920E-004           1           3           4          10
 -2.714524289067490E-005           1           3           4          11
  1.826604358762056E-004           1           3           4          12
 -1.418264306916401E-004           1           3           4          13
 -3.273390381778879E-005           1           3           4          14
  1.589024494822943E-004           1           3           5          10
  1.775201820496564E-004           1           3           5          11
  7.728895968044114E-005           1           3           5          12
 -2.113873392789984E-004           1           3           5          13
  5.724905927115254E-005           1           3           5          14
 -2.438738344537819E-004           1           3           6           3
 -1.060513433997804E-004           1           3           6           7
 -6.983541038880076E-004           1           3           6           8
 -3.416460956088810E-004           1           3           6           9
  3.400416069473427E-004           1           3           7           1
  1.630683624264987E-004           1           3           7           2
 -1.161719484469591E-004           1           3           7           6
  2.014195488941610E-004           1           3           7          10
  2.659516361566445E-004           1           3           7          11
  2.068421981501244E-004           1           3           7          12
 -4.383495016602535E-004           1           3           7          13
  1.759941765180184E-004           1           3           7          14
  2.239193244437881E-003           1           3           8           1
  1.073814404081168E-003           1           3           8           2
 -7.649988614360902E-004           1           3           8           6
 -2.271279859999537E-004           1           3           8          10
 -3.624814840529806E-004           1           3           8          11
  1.298452433939663E-004           1           3           8          12
 -9.026241982366357E-005           1           3           8          13
  5.157093814238979E-004           1           3           8          14
  1.095449464701175E-003           1           3           9           1
  5.253273325386541E-004           1           3           9           2
 -3.742497863187080E-004           1           3           9           6
  4.255989474439142E-004           1           3           9          10
 -5.152025957792331E-005           1           3           9          11
 -2.724258558426092E-004           1           3           9          12
  1.559053755588452E-004           1           3           9          13
  3.410440751338565E-004           1           3           9          14
  1.032447495290260E-005           1           3          10           3
 -4.306476336273371E-004           1           3          10           4
  2.907066126034230E-004           1           3          10           5
  3.102768145119846E-004           1           3          10           7
 -3.498794700970336E-004           1           3          10           8
  6.556135921682654E-004           1           3          10           9
 -3.072687239113058E-004           1           3          11           3
 -4.966082526492360E-005           1           3          11           4
  3.247637754782162E-004           1           3          11           5
  4.096677831322205E-004           1           3          11           7
 -5.583608299057104E-004           1           3          11           8
 -7.936069829872833E-005           1           3          11           9
  2.475583991270182E-005           1           3          12           3
  3.341675610671704E-004           1           3          12           4
  1.413960494583484E-004           1           3          12           5
  3.186164238214039E-004           1           3          12           7
  2.000115195462872E-004           1           3          12           8
 -4.196404001015106E-004           1           3          12           9
 -7.127570145376637E-005           1           3          13           3
 -2.594665882888550E-004           1           3          13           4
 -3.867258839885494E-004           1           3          13           5
 -6.752552650178265E-004           1           3          13           7
 -1.390446950086831E-004           1           3          13           8
  2.401643560577884E-004           1           3          13           9
  6.275273435541591E-004           1           3          14           3
 -5.988493219062239E-005           1           3          14           4
  1.047341088409920E-004           1           3          14           5
  2.710985927915347E-004           1           3          14           7
  7.943904956835340E-004           1           3          14           8
  5.253387944235764E-004           1           3          14           9
  2.185822476609797E-004           1           4           1           4
  1.265671391970727E-004           1           4           1           7
  2.653848814707774E-004           1           4           1           8
 -5.817576690664190E-004           1           4           1           9
  6.201459772359769E-004           1           4           2           4
  1.771915146795723E-004           1           4           2           7
  3.715336336049017E-004           1           4           2           8
 -8.144493366309740E-004           1           4           2           9
 -2.353953049749923E-004           1           4           3          10
 -2.714524289067497E-005           1           4           3          11
  1.826604358762054E-004           1           4           3          12
 -1.418264306916407E-004           1           4           3          13
 -3.273390381778875E-005           1           4           3          14
  7.123998062008132E-004           1           4           4           1
  6.739930224075928E-004           1           4           4           2
 -1.841764313952483E-004           1           4           4           6
 -1.642684561967146E-004           1           4           4          10
  2.162320775772954E-004           1           4           4          11
 -2.441391527018941E-004           1           4           4          12
 -5.923618641812562E-005           1           4           4          13
 -1.036697993977395E-004           1           4           4          14
 -6.283261936396596E-005           1           4           5          10
  1.995062732416498E-004           1           4           5          11
  1.219812750096986E-004           1           4           5          12
  1.963767701821523E-004           1           4           5          13
  1.162151608776334E-004           1           4           5          14
 -2.438738344537819E-004           1           4           6           4
 -1.523546107364605E-004           1           4           6           7
 -3.194558284900905E-004           1           4           6           8
  7.002881140858838E-004           1           4           6           9
  4.885077831156418E-004           1           4           7           1
  2.342659327498200E-004           1           4           7           2
 -1.668939913133549E-004           1           4           7           6
 -2.296008316475577E-004           1           4           7          10
  4.272619384265276E-004           1           4           7          11
  1.763121390887300E-004           1           4           7          12
  2.946940841822483E-004           1           4           7          13
  1.626200205943760E-004           1           4           7          14
  1.024298889444246E-003           1           4           8           1
  4.912067791834075E-004           1           4           8           2
 -3.499418757811626E-004           1           4           8           6
 -4.849190815179923E-004           1           4           8          10
  4.222284398014862E-005           1           4           8          11
  7.020663889150948E-005           1           4           8          12
 -3.508355844262750E-004           1           4           8          13
 -1.751778131600536E-004           1           4           8          14
 -2.245394428830799E-003           1           4           9           1
 -1.076788207766946E-003           1           4           9           2
  7.671174365130378E-004           1           4           9           6
  6.756307574840370E-005           1           4           9          10
 -3.336699578081683E-004           1           4           9          11
  5.738175852871990E-004           1           4           9          12
  2.621619724459747E-005           1           4           9          13
  1.692419541402479E-004           1           4           9          14
 -4.306476336273374E-004           1           4          10           3
 -3.005234634103677E-004           1           4          10           4
 -1.149500831960452E-004           1           4          10           5
 -3.536881965549335E-004           1           4          10           7
 -7.469932958334824E-004           1           4          10           8
  1.040773005863843E-004           1           4          10           9
 -4.966082526492374E-005           1           4          11           3
  3.955850693765097E-004           1           4          11           4
  3.649861178002503E-004           1           4          11           5
  6.581472955017181E-004           1           4          11           7
  6.503906928489297E-005           1           4          11           8
 -5.139798176750964E-004           1           4          11           9
  3.341675610671703E-004           1           4          12           3
 -4.466396151674692E-004           1           4          12           4
  2.231582623444036E-004           1           4          12           5
  2.715883817143751E-004           1           4          12           7
  1.081451522965715E-004           1           4          12           8
  8.838994255105698E-004           1           4          12           9
 -2.594665882888555E-004           1           4          13           3
 -1.083705708128982E-004           1           4          13           4
  3.592645620854702E-004           1           4          13           5
  4.539613462509246E-004           1           4          13           7
 -5.404444950292541E-004           1           4          13           8
  4.038472945591119E-005           1           4          13           9
 -5.988493219062224E-005           1           4          14           3
 -1.896583872532924E-004           1           4          14           4
  2.126094656161970E-004           1           4          14           5
  2.504972970017866E-004           1           4          14           7
 -2.698410546909407E-004           1           4          14           8
  2.606975906844596E-004           1           4          14           9
  2.185822476609791E-004           1           5           1           5
  6.333319111414895E-004           1           5           1           7
 -1.337386762431648E-004           1           5           1           8
  7.677902292929336E-005           1           5           1           9
  6.201459772359758E-004           1           5           2           5
  8.866522648926561E-004           1           5           2           7
 -1.872315260114160E-004           1           5           2           8
  1.074891275473634E-004           1           5           2           9
  1.589024494822945E-004           1           5           3          10
  1.775201820496564E-004           1           5           3          11
  7.728895968044086E-005           1           5           3          12
 -2.113873392789985E-004           1           5           3          13
  5.724905927115246E-005           1           5           3          14
 -6.283261936396585E-005           1           5           4          10
  1.995062732416496E-004           1           5           4          11
  1.219812750096986E-004           1           5           4          12
  1.963767701821515E-004           1           5           4          13
  1.162151608776339E-004           1           5           4          14
  7.123998062008119E-004           1           5           5           1
  6.739930224075917E-004           1           5           5           2
 -1.841764313952480E-004           1           5           5           6
  1.586249963056986E-004           1           5           5          10
 -4.827490576795636E-005           1           5           5          11
  2.306072813746412E-004           1           5           5          12
  9.819603269179040E-005           1           5           5          13
 -2.393449932384632E-004           1           5           5          14
 -2.438738344537817E-004           1           5           6           5
 -7.623703703905041E-004           1           5           6           7
  1.609873154177122E-004           1           5           6           8
 -9.242239514400353E-005           1           5           6           9
  2.444454143870520E-003           1           5           7           1
  1.172248119417227E-003           1           5           7           2
 -8.351242759144346E-004           1           5           7           6
  3.007075804264900E-004           1           5           7          10
  2.912766275145221E-005           1           5           7          11
  4.751717060384260E-004           1           5           7          12
  1.931761014328174E-004           1           5           7          13
 -3.722118010027587E-004           1           5           7          14
 -5.161875717728157E-004           1           5           8           1
 -2.475398901609663E-004           1           5           8           2
  1.763505252056949E-004           1           5           8           6
  1.533003236489637E-004           1           5           8          10
  4.584902113140118E-004           1           5           8          11
  1.309204257199393E-004           1           5           8          12
 -2.361797753365637E-004           1           5           8          13
  2.712264672273398E-004           1           5           8          14
  2.963419298161831E-004           1           5           9           1
  1.421120010790814E-004           1           5           9           2
 -1.012423735505071E-004           1           5           9           6
  2.649160726587112E-004           1           5           9          10
 -1.959062512593243E-004           1           5           9          11
 -8.843285135504559E-005           1           5           9          12
 -4.706445963833059E-004           1           5           9          13
 -1.968948828898061E-004           1           5           9          14
  2.907066126034233E-004           1           5          10           3
 -1.149500831960449E-004           1           5          10           4
  2.901989884574644E-004           1           5          10           5
  4.632249182735317E-004           1           5          10           7
  2.361516954281763E-004           1           5          10           8
  4.080897055794494E-004           1           5          10           9
  3.247637754782162E-004           1           5          11           3
  3.649861178002498E-004           1           5          11           4
 -8.831634546520492E-005           1           5          11           5
  4.486798737973451E-005           1           5          11           7
  7.062510890233077E-004           1           5          11           8
 -3.017706722534017E-004           1           5          11           9
  1.413960494583480E-004           1           5          12           3
  2.231582623444036E-004           1           5          12           4
  4.218837752547664E-004           1           5          12           5
  7.319469072899058E-004           1           5          12           7
  2.016677379454043E-004           1           5          12           8
 -1.362205312727874E-004           1           5          12           9
 -3.867258839885493E-004           1           5          13           3
  3.592645620854695E-004           1           5          13           4
  1.796462722666643E-004           1           5          13           5
  2.975780245092162E-004           1           5          13           7
 -3.638230159915029E-004           1           5          13           8
 -7.250042235360939E-004           1           5          13           9
  1.047341088409916E-004           1           5          14           3
  2.126094656161974E-004           1           5          14           4
 -4.378689563008679E-004           1           5          14           5
 -5.733491266040720E-004           1           5          14           7
  4.177928931121640E-004           1           5          14           8
 -3.032937497322216E-004           1           5          14           9
  6.713638251055604E-002           1           6           1           1
 -3.295631145985183E-003           1           6           1           2
  2.622402594927348E-003           1           6           1           6
 -9.783903675909190E-003           1           6           2           1
  1.230433957292021E-002           1           6           2           2
 -4.337115423952197E-003           1           6           2           6
  7.135264658861082E-003           1           6           3           3
  5.715742298566839E-004           1           6           3           7
  3.763848682164544E-003           1           6           3           8
  1.841335505247303E-003           1           6           3           9
  7.135264658861077E-003           1           6           4           4
  8.211302799676445E-004           1           6           4           7
  1.721738860526598E-003           1           6           4           8
 -3.774272221876054E-003           1           6           4           9
  7.135264658861078E-003           1           6           5           5
  4.108870697458897E-003           1           6           5           7
 -8.676570977484112E-004           1           6           5           8
  4.981196619717104E-004           1           6           5           9
  5.305166584188710E-003           1           6           6           1
 -3.119956302809555E-003           1           6           6           2
  7.666928567347265E-003           1           6           6           6
  5.446518883286761E-004           1           6           7           3
  7.824533265965651E-004           1           6           7           4
  3.915334294953226E-003           1           6           7           5
  1.029471169949370E-002           1           6           7           7
  3.586563538104806E-003           1           6           8           3
  1.640641359617989E-003           1           6           8           4
 -8.267886339608820E-004           1           6           8           5
  1.029471169949370E-002           1           6           8           8
  1.754604752266461E-003           1           6           9           3
 -3.596496107297729E-003           1           6           9           4
  4.746571842025836E-004           1           6           9           5
  1.029471169949370E-002           1           6           9           9
  1.212470355312450E-002           1           6          10          10
  1.212472311845241E-002           1           6          11          11
  1.212472312050515E-002           1           6          12          12
  1.212470355099743E-002           1           6          13          13
  1.212472312048511E-002           1           6          14          14
  8.810114165389346E-005           1           7           1           3
  1.265671391970729E-004           1           7           1           4
  6.333319111414891E-004           1           7           1           5
  1.953063501095106E-003           1           7           1           7
  1.986695080914703E-004           1           7           2           3
  2.854109585050517E-004           1           7           2           4
  1.428173765777188E-003           1           7           2           5
  2.177493460528466E-003           1           7           2           7
  2.950115037656724E-004           1           7           3           1
  2.190115740029572E-004           1           7           3           2
 -6.472281694244045E-005           1           7           3           6
  2.472915642224779E-004           1           7           3          10
  3.265105091620421E-004           1           7           3          11
  2.539414231184161E-004           1           7           3          12
 -5.381805858513649E-004           1           7           3          13
  2.160691023662357E-004           1           7           3          14
  4.238170057833472E-004           1           7           4           1
  3.146346103152596E-004           1           7           4           2
 -9.298156218408711E-005           1           7           4           6
 -2.818906795553542E-004           1           7           4          10
  5.245519743983145E-004           1           7           4          11
  2.164594694647609E-004           1           7           4          12
  3.618086324553723E-004           1           7           4          13
  1.996495929635854E-004           1           7           4          14
  2.120746632576480E-003           1           7           5           1
  1.574406598160907E-003           1           7           5           2
 -4.652723515167418E-004           1           7           5           6
  3.691917091340263E-004           1           7           5          10
  3.576032180947308E-005           1           7           5          11
  5.833711832073786E-004           1           7           5          12
  2.371706288791244E-004           1           7           5          13
 -4.569666910236724E-004           1           7           5          14
 -8.634696852001378E-005           1           7           6           3
 -1.240470733835827E-004           1           7           6           4
 -6.207217019830501E-004           1           7           6           5
 -1.811006792513378E-003           1           7           6           7
  7.827936049887704E-003           1           7           7           1
  3.032974726979582E-003           1           7           7           2
 -2.088397012253648E-003           1           7           7           6
  6.568973114601238E-004           1           7           7          10
  3.518762059987288E-004           1           7           7          11
  1.252233251717874E-003           1           7           7          12
  4.438063284236387E-004           1           7           7          13