  &FCI NORB=  6,NELEC=  6,MS2=  0,
  ORBSYM= 1, 2, 3, 5, 6, 7,
  ISYM=0
 &END
    0.88285687688        1    1    1    1
    0.52237020330E-01    2    1    2    1
    0.63947368619        2    2    1    1
    0.58545071151        2    2    2    2
    0.52236654977E-01    3    1    3    1
    0.23437324400E-01    3    2    3    2
    0.63947466790        3    3    1    1
    0.53857740147        3    3    2    2
    0.58545251481        3    3    3    3
    0.19988605809        4    1    4    1
    0.35633137326E-01    4    2    4    2
    0.35629047637E-01    4    3    4    3
    0.85654401959        4    4    1    1
    0.65393662778        4    4    2    2
    0.65393424311        4    4    3    3
    0.89186646404        4    4    4    4
   -0.23978672421E-01    5    1    4    2
    0.19124671820E-01    5    1    5    1
   -0.15053241335        5    2    4    1
    0.18511455801        5    2    5    2
    0.17953165159E-01    5    3    5    3
   -0.46458374234E-01    5    4    2    1
    0.53172209822E-01    5    4    5    4
    0.66058792867        5    5    1    1
    0.61023742510        5    5    2    2
    0.56567230633        5    5    3    3
    0.70361821811        5    5    4    4
    0.67249802725        5    5    5    5
   -0.23975465951E-01    6    1    4    3
    0.19122178805E-01    6    1    6    1
    0.17952323401E-01    6    2    5    3
    0.17951481725E-01    6    2    6    2
   -0.15052947867        6    3    4    1
    0.14921420608        6    3    5    2
    0.18511489321        6    3    6    3
   -0.46452352970E-01    6    4    3    1
    0.53159295524E-01    6    4    6    4
    0.22286351898E-01    6    5    3    2
    0.27139988347E-01    6    5    6    5
    0.66057207234        6    6    1    1
    0.56566124615        6    6    2    2
    0.61023106552        6    6    3    3
    0.70359868817        6    6    4    4
    0.61822187693        6    6    5    5
    0.67248394273        6    6    6    6
    -4.3878449840        1    1    0    0
    -3.4757308542        2    2    0    0
    -3.4757355218        3    3    0    0
    -2.7660318529        4    4    0    0
    -3.1302955836        5    5    0    0
    -3.1302686331        6    6    0    0
    -1.0416710686        1    0    0    0
   -0.59483767940        2    0    0    0
   -0.59483752931        3    0    0    0
     1.2908121033        4    0    0    0
    0.31336033213        5    0    0    0
    0.31332452625        6    0    0    0
    -95.436623636        0    0    0    0
