 &FCI NORB= 16,NELEC= 8,ORBSYM= 1, 1, 1, 1, 1, 1, 1, 1, 1, 1, 1, 1, 1, 1, 1, 1, 
 ISYM= 0 ,
 TREL=.TRUE.
 &END
(0.523053034433921,9.45148010656008e-17)   2   2   2   2
(-0.0302560529563286,5.90278549886708e-09)  10   2   2   2
(-0.0018762030147297,-0.0218506568692619)   4   2   4   2
(-0.0163998180637068,-0.00826208985238737)   6   2   4   2
(0.014274275609141,-0.0151077160713999)   8   2   4   2
(0.000497505993090165,-0.000235175297279365)  12   2   4   2
(0.0104170459996577,0.00129747465674388)  14   2   4   2
(0.0037968647374942,-0.00161925663800112)  16   2   4   2
(-0.0163998180637068,-0.00826208985238737)   4   2   6   2
(-0.0102525450418768,0.0128048057747099)   6   2   6   2
(-0.00610841301025013,-0.0152665386370182)   8   2   6   2
(0.00310121427142689,-0.000846956783626401)  12   2   6   2
(0.00592712317956573,-0.00599732561731314)  14   2   6   2
(-0.00202473571283174,-0.00403278949301912)  16   2   6   2
(0.014274275609141,-0.0151077160713999)   4   2   8   2
(-0.00610841301025013,-0.0152665386370182)   6   2   8   2
(-0.00670194070522863,-0.0180540393392631)   8   2   8   2
(-0.00598629145131479,0.00369861757365545)  12   2   8   2
(-0.00125945288673458,-0.00138353546712236)  14   2   8   2
(0.00447691639213475,-0.00533085934926572)  16   2   8   2
(-0.0302560529563286,5.90278549886708e-09)   2   2  10   2
(0.0049308115477321,-1.36538281655046e-09)  10   2  10   2
(0.000497505993090165,-0.000235175297279365)   4   2  12   2
(0.00310121427142689,-0.000846956783626401)   6   2  12   2
(-0.00598629145131479,0.00369861757365545)   8   2  12   2
(1.07135465343232e-05,1.04662962042022e-05)  12   2  12   2
(-0.00231000136894009,0.000122389114577059)  14   2  12   2
(-0.00193628287774641,0.000204955392143608)  16   2  12   2
(0.0104170459996577,0.00129747465674388)   4   2  14   2
(0.00592712317956573,-0.00599732561731314)   6   2  14   2
(-0.00125945288673458,-0.00138353546712236)   8   2  14   2
(-0.00231000136894009,0.000122389114577059)  12   2  14   2
(-0.00264140822500216,0.000507557089844859)  14   2  14   2
(0.00111608589126025,-0.000189369393878713)  16   2  14   2
(0.0037968647374942,-0.00161925663800112)   4   2  16   2
(-0.00202473571283174,-0.00403278949301912)   6   2  16   2
(0.00447691639213475,-0.00533085934926572)   8   2  16   2
(-0.00193628287774641,0.000204955392143608)  12   2  16   2
(0.00111608589126025,-0.000189369393878713)  14   2  16   2
(0.00273004174552544,-0.0003531608913587)  16   2  16   2
(0.448015761417673,-2.27304420136409e-16)   4   4   2   2
(-8.21589358409925e-07,-5.90061774065893e-07)   6   4   2   2
(1.16795956899816e-06,-2.64938052464111e-07)   8   4   2   2
(-0.0198953013398624,0.00196661776041841)  12   4   2   2
(-6.12087711804133e-07,7.48653590282376e-07)  14   4   2   2
(-1.2534753903984e-07,-7.03251606790341e-07)  16   4   2   2
(0.0374137395057712,-1.73505302473285e-17)   2   4   4   2
(-2.04160214353178e-08,-5.31893267879935e-09)   4   4   4   2
(-8.2031235288438e-08,-2.01940950642611e-08)   6   4   4   2
(1.08047088946072e-07,-9.87081170537976e-08)   8   4   4   2
(0.00292022051828925,-2.32250410349922e-08)  10   4   4   2
(-2.76131380810714e-08,2.8692874063337e-08)  12   4   4   2
(3.01947164539741e-08,-4.25947772400561e-09)  14   4   4   2
(-6.74977871103435e-09,4.08827779392406e-08)  16   4   4   2
(0.0176467732664948,-0.0193492692847548)   2   4   6   2
(-1.16329252495637e-08,3.99994906637624e-09)   4   4   6   2
(-7.91501361653883e-08,2.77147343317264e-08)   6   4   6   2
(1.72300938397561e-08,1.84424327159396e-09)   8   4   6   2
(0.00180955005772329,-0.00198396339159158)  10   4   6   2
(1.21519376184913e-08,3.10525356631598e-08)  12   4   6   2
(1.22360642341753e-08,-3.52987410419169e-09)  14   4   6   2
(1.11272880982597e-08,3.81503489983521e-08)  16   4   6   2
(0.0044099947764967,-0.00883914408991042)   2   4   8   2
(-1.10532709169491e-08,3.05862564601582e-08)   4   4   8   2
(7.79845645174908e-09,4.06991139453272e-08)   6   4   8   2
(-5.60092725291553e-08,-7.45414924024263e-08)   8   4   8   2
(0.000452103707391467,-0.000906277996882967)  10   4   8   2
(4.27770203079358e-09,1.99594594507068e-08)  12   4   8   2
(-2.08648783890406e-08,-5.87000164824048e-08)  14   4   8   2
(-1.08560966782482e-08,1.13277688665232e-08)  16   4   8   2
(-0.0184399129861266,4.25809722411084e-09)   4   4  10   2
(6.58324754564462e-08,9.18921093638638e-08)   6   4  10   2
(-1.5311561014185e-07,2.94672275963832e-08)   8   4  10   2
(0.00193631245034949,-0.000191392537618423)  12   4  10   2
(5.06256172269215e-08,-7.59544456582681e-08)  14   4  10   2
(-2.19509171581874e-08,3.97222343753257e-08)  16   4  10   2
(-0.00510090309276628,-2.95338962521018e-05)   2   4  12   2
(3.0118464547966e-09,5.78856602773848e-09)   4   4  12   2
(1.58433313447907e-08,2.52482210692877e-08)   6   4  12   2
(-6.18924552810876e-09,1.01329330880386e-08)   8   4  12   2
(-5.30044606894521e-05,-2.89394837171309e-07)  10   4  12   2
(1.04293742983932e-08,-8.49165848037321e-09)  12   4  12   2
(-5.7888180903388e-09,-1.44629883188913e-09)  14   4  12   2
(8.83724158453197e-09,-5.91300673997462e-09)  16   4  12   2
(-0.00450985635949066,0.00352561608630209)   2   4  14   2
(-3.73276658705719e-09,6.13671546445873e-09)   4   4  14   2
(2.13644608228694e-08,1.32824718054917e-08)   6   4  14   2
(-2.54232124217879e-08,-2.29855001685972e-08)   8   4  14   2
(-0.000303865272893693,0.000237571731714774)  10   4  14   2
(2.36350337032515e-09,-3.0818296247766e-09)  12   4  14   2
(-1.13649088608681e-09,-1.64983823240689e-08)  14   4  14   2
(4.53628735039083e-10,-1.15780121674913e-08)  16   4  14   2
(0.00435993950767247,-0.00134392690348713)   2   4  16   2
(-5.91617299212857e-09,2.92310124358742e-09)   4   4  16   2
(-1.02460984297275e-08,3.1017527653556e-08)   6   4  16   2
(-1.46877546841131e-08,-6.96697902621489e-09)   8   4  16   2
(0.000293676929812274,-9.05711012808844e-05)  10   4  16   2
(-7.93826053195332e-09,7.16747866172375e-09)  12   4  16   2
(8.4588875693703e-09,-1.4689825700995e-08)  14   4  16   2
(-2.18905695281986e-08,2.35850973418688e-09)  16   4  16   2
(-8.21589358201737e-07,5.90061773919152e-07)   4   6   2   2
(0.3978250658383,1.22696368987194e-18)   6   6   2   2
(2.59443954607554e-07,-2.3393928453392e-07)   8   6   2   2
(-5.38756815477182e-07,-1.46268828338411e-06)  12   6   2   2
(-0.0349050182976102,-0.0124172216184883)  14   6   2   2
(0.00788533287690828,0.0248472887428035)  16   6   2   2
(0.0176467732664948,0.0193492692847548)   2   6   4   2
(5.70677878017028e-08,1.05291238028467e-08)   4   6   4   2
(-1.56982035448797e-08,-5.09507418875465e-08)   6   6   4   2
(-2.8381911827819e-08,6.65147597638853e-08)   8   6   4   2
(0.00356326399627651,0.00390677318383765)  10   6   4   2
(-4.58155526568623e-09,-9.71490554492678e-09)  12   6   4   2
(-1.99628575812014e-08,2.04383793863687e-08)  14   6   4   2
(-1.29495323722828e-08,-2.81327502408829e-08)  16   6   4   2
(0.0262616124011732,-1.73393930875611e-18)   2   6   6   2
(2.83343431316778e-08,-5.07427105984039e-08)   4   6   6   2
(-1.26927478254537e-10,4.90896383731387e-09)   6   6   6   2
(1.6980745447975e-08,-3.10355992510907e-08)   8   6   6   2
(0.00612039803086785,-1.61684063129347e-08)  10   6   6   2
(-9.44440854520268e-09,-3.27522237596938e-09)  12   6   6   2
(-1.74333041730696e-08,1.90143714173019e-08)  14   6   6   2
(-2.01249454290874e-08,-3.31785676852535e-09)  16   6   6   2
(-0.00358605658120285,0.00313428152901636)   2   6   8   2
(-3.01661555949097e-08,8.8403832792312e-08)   4   6   8   2
(-9.97642464701255e-09,-2.03256369559111e-08)   6   6   8   2
(-3.67136456888258e-08,6.53855095004067e-08)   8   6   8   2
(-0.000835899273139141,0.000730437998642665)  10   6   8   2
(-6.77056281418315e-09,-6.00217426101112e-09)  12   6   8   2
(1.58982745513782e-08,-1.70103896489044e-08)  14   6   8   2
(-1.14383284012506e-08,-1.5707718477853e-08)  16   6   8   2
(6.65348103485025e-08,-9.27166994021719e-08)   4   6  10   2
(-0.012270991713772,3.15144733114992e-09)   6   6  10   2
(-2.62812422397595e-08,2.40178234673277e-08)   8   6  10   2
(2.79315400929226e-08,7.79607346957511e-08)  12   6  10   2
(0.00261327055224794,0.000929658448731127)  14   6  10   2
(-0.000590382957019829,-0.00186026657348953)  16   6  10   2
(-0.00166321591185928,-0.00401288738439197)   2   6  12   2
(-1.09226615557235e-08,-1.29633693170059e-10)   4   6  12   2
(-3.38393560073097e-09,-1.49766045925405e-09)   6   6  12   2
(-1.87682063502237e-09,-1.80257369076194e-09)   8   6  12   2
(-0.000164008893002078,-0.000395667551613141)  10   6  12   2
(1.01074391871395e-09,4.22179930853277e-09)  12   6  12   2
(3.97345523977387e-09,6.0759527192281e-11)  14   6  12   2
(2.26854544113049e-09,4.37421361616661e-09)  16   6  12   2
(-0.00685459488158909,-0.00133189293295819)   2   6  14   2
(-2.98529436466145e-08,1.6249917603737e-08)   4   6  14   2
(-4.96046000107637e-09,5.02039368223959e-09)   6   6  14   2
(-9.32082939273786e-10,4.80651695400252e-09)   8   6  14   2
(-0.00123231462650653,-0.000239402536849463)  10   6  14   2
(2.22416511846024e-09,-2.88226401147883e-10)  12   6  14   2
(1.35367412090744e-08,-5.11679046370018e-09)  14   6  14   2
(8.3991383050814e-09,-4.61555914509694e-10)  16   6  14   2
(-0.00112552641107582,0.0023183709492849)   2   6  16   2
(-2.69335703901243e-08,3.40669107578248e-10)   4   6  16   2
(-9.7889458123562e-09,-8.48621344807135e-10)   6   6  16   2
(-0.000202354381140647,0.000416709592805857)  10   6  16   2
(3.21589468495173e-09,-2.25850498527261e-09)  12   6  16   2
(5.66440434705955e-09,-5.43860040002511e-09)  14   6  16   2
(-2.53919863192051e-09,-8.16695409407855e-09)  16   6  16   2
(1.16795956908708e-06,2.64938052699603e-07)   4   8   2   2
(2.59443954526922e-07,2.3393928453656e-07)   6   8   2   2
(0.397824348969116,-2.20063692892973e-16)   8   8   2   2
(-1.06034634414843e-08,2.40177173510941e-06)  12   8   2   2
(0.0264799280406249,0.00190245592680083)  14   8   2   2
(0.0263321220907316,0.0332642892713813)  16   8   2   2
(0.00440999477649672,0.00883914408991043)   2   8   4   2
(-1.17499506954012e-07,4.01240539323662e-08)   4   8   4   2
(4.63886814150525e-08,3.44831293253229e-08)   6   8   4   2
(3.69319625894623e-08,5.45236432307632e-08)   8   8   4   2
(0.000890307212550424,0.0017846568018625)  10   8   4   2
(2.37395782314144e-09,8.29371081353959e-09)  12   8   4   2
(1.05803011753562e-08,-6.89785856441175e-09)  14   8   4   2
(-2.15581211608554e-08,6.80557919858803e-08)  16   8   4   2
(-0.00358605658120285,-0.00313428152901636)   2   8   6   2
(2.21336542212289e-08,3.82827450076548e-08)   4   8   6   2
(-3.45358769962952e-08,1.48224290432393e-08)   6   8   6   2
(1.26284158001277e-08,-8.46213726455451e-09)   8   8   6   2
(-0.000835977397928279,-0.000730403071660055)  10   8   6   2
(3.60070024072308e-09,1.82789785367432e-08)  12   8   6   2
(4.93707417307345e-09,-2.43385867027713e-08)  14   8   6   2
(1.25775817341106e-08,3.42236281419497e-08)  16   8   6   2
(0.0334187180250129,3.46818136561641e-18)   2   8   8   2
(1.53209349219371e-08,3.90155399581868e-08)   4   8   8   2
(2.56840709413337e-08,2.38703751170618e-08)   6   8   8   2
(1.99155445067125e-08,-1.03143818219238e-08)   8   8   8   2
(0.00778854024699572,2.08790347052214e-08)  10   8   8   2
(1.44790236408147e-08,-4.00587388317878e-09)  12   8   8   2
(-1.37400452839096e-09,1.01721265644455e-08)  14   8   8   2
(7.08938682215935e-09,4.3258214249694e-10)  16   8   8   2
(-1.5273177655e-07,-3.07924893420645e-08)   4   8  10   2
(-2.61835090950182e-08,-2.39439752604135e-08)   6   8  10   2
(-0.0122709191958239,3.4380879440173e-09)   8   8  10   2
(1.66714616612646e-08,-1.4095512019723e-07)  12   8  10   2
(-0.00198249213337786,-0.000142412983192436)  14   8  10   2
(-0.00197140584951771,-0.00249043229280671)  16   8  10   2
(-0.000553883420722301,-0.00214689609518949)   2   8  12   2
(9.47731465512386e-09,-8.78288904462192e-09)   4   8  12   2
(9.8851930459217e-09,1.49165531672831e-08)   6   8  12   2
(5.07533576987231e-10,-3.38666498836979e-09)   8   8  12   2
(-5.45851340572564e-05,-0.000211620331903558)  10   8  12   2
(3.11795076889039e-09,-3.55877523439113e-09)  12   8  12   2
(-4.19645175827863e-09,-1.0747823794755e-09)  14   8  12   2
(1.58743264524732e-11,-2.30425021551846e-09)  16   8  12   2
(0.00683119516191782,0.00396294770500045)   2   8  14   2
(1.25629503981503e-08,1.47348980912773e-08)   4   8  14   2
(5.87911838522055e-09,-6.47766128603195e-09)   6   8  14   2
(8.49213911236316e-09,-1.08005192534683e-08)   8   8  14   2
(0.00122809753057623,0.000712429019364281)  10   8  14   2
(3.62589277512863e-10,-3.70232861888441e-09)  12   8  14   2
(-2.53313021156999e-09,6.69066646423562e-09)  14   8  14   2
(-1.1569112860088e-09,-1.05617341096661e-08)  16   8  14   2
(0.00765188062273672,0.00477903159024167)   2   8  16   2
(-8.61162724086138e-09,4.17594783080625e-08)   4   8  16   2
(3.2874478084447e-09,1.57134308200013e-08)   6   8  16   2
(1.51452441253996e-08,-2.11613729806827e-09)   8   8  16   2
(0.00137561110689429,0.000859144399205367)  10   8  16   2
(2.2291720103027e-09,5.17079046883977e-10)  12   8  16   2
(-1.95692399861781e-10,-3.8688183877115e-09)  14   8  16   2
(4.98868181626155e-09,5.05212611240826e-09)  16   8  16   2
(-0.0302560529563286,-5.90278553258682e-09)   2  10   2   2
(0.197955521138866,1.73026931264913e-16)  10  10   2   2
(-0.00014618762187472,-0.00170209531122426)   4  10   4   2
(-0.00330786120103392,-0.00166659963692077)   6  10   4   2
(0.00287902557200577,-0.00304710740657671)   8  10   4   2
(-0.00057686271476779,0.000272913174337369)  12  10   4   2
(-0.00682461312252541,-0.00085002470734965)  14  10   4   2
(-0.00248748806055838,0.00106083488505504)  16  10   4   2
(-0.00167936159672986,-0.000846189604032036)   4  10   6   2
(-0.00238731631705061,0.00298117539259852)   6  10   6   2
(-0.00142225271733885,-0.00355466401317502)   8  10   6   2
(-0.00415993500282291,0.0011359967870304)  12  10   6   2
(-0.00435580625859205,0.00440729468349754)  14  10   6   2
(0.00148803270361075,0.00296356631621238)  16  10   6   2
(0.00146150632446481,-0.00154686801085488)   4  10   8   2
(-0.0014222125512141,-0.00355427507895616)   6  10   8   2
(-0.00156045043731687,-0.00420339739132526)   8  10   8   2
(0.0080305165606328,-0.00496162661494015)  12  10   8   2
(0.000925666597299919,0.00101666049283497)  14  10   8   2
(-0.0032901438203027,0.0039176848391118)  16  10   8   2
(0.00493081154773104,9.71282875500808e-19)   2  10  10   2
(-0.000341074736672645,6.60558696429057e-10)  10  10  10   2
(5.15293725846939e-06,-2.40390824827174e-06)   4  10  12   2
(0.000305335041931142,-8.34032286892281e-05)   6  10  12   2
(-0.000589307522133002,0.000364100078421151)   8  10  12   2
(-6.50270607305502e-06,-6.35734787658494e-06)  12  10  12   2
(0.000823831544150844,-4.36426463183426e-05)  14  10  12   2
(0.000690521207157045,-7.31058405068603e-05)  16  10  12   2
(0.000700538478254567,8.72888122427485e-05)   4  10  14   2
(0.00106440338644352,-0.00107690567366887)   6  10  14   2
(-0.000226212776776643,-0.000248402863581308)   8  10  14   2
(0.00233602805126353,-0.000123781887159769)  12  10  14   2
(0.00150302970060207,-0.000288807152594015)  14  10  14   2
(-0.000635098884925653,0.000107763782572779)  16  10  14   2
(0.000255282292499477,-0.000108881084551744)   4  10  16   2
(-0.000363610254936373,-0.000724137622232772)   6  10  16   2
(0.000803920623441404,-0.000957251442407862)   8  10  16   2
(0.00195819671983855,-0.00020722456280486)  12  10  16   2
(-0.000635002953901943,0.000107750364954327)  14  10  16   2
(-0.0015534461933124,0.000200961926337578)  16  10  16   2
(-0.0198953013398624,-0.00196661776041842)   4  12   2   2
(-5.38756815456076e-07,1.46268828331869e-06)   6  12   2   2
(-1.06034634552731e-08,-2.4017717351246e-06)   8  12   2   2
(0.176096779078474,1.461567125425e-16)  12  12   2   2
(-2.39570250210166e-07,-2.17000894445496e-07)  14  12   2   2
(-3.48571237512752e-07,-1.45955938912626e-07)  16  12   2   2
(-0.00510090309276628,2.95338962521011e-05)   2  12   4   2
(-6.32493975713566e-09,4.36526625611434e-10)   4  12   4   2
(1.57732167687433e-08,7.95147233217662e-09)   6  12   4   2
(-2.76734428024244e-08,8.93032093725376e-10)   8  12   4   2
(0.00591762733909334,-3.42524777469971e-05)  10  12   4   2
(1.02739487808323e-09,1.81816855314351e-09)  12  12   4   2
(-1.44574804919098e-08,-1.24784848646428e-08)  14  12   4   2
(-1.11945788759165e-08,-5.191712089903e-09)  16  12   4   2
(-0.00166321591185928,0.00401288738439197)   2  12   6   2
(1.44019249230284e-08,1.44792338535014e-08)   4  12   6   2
(6.85232923459827e-09,-7.51757456136454e-09)   6  12   6   2
(1.2426952210713e-09,7.55673859000865e-09)   8  12   6   2
(0.00223108227274272,-0.00538314919000647)  10  12   6   2
(1.6198837040203e-09,1.07824949166203e-09)  12  12   6   2
(-2.52188209422849e-09,-2.33584989027107e-09)  14  12   6   2
(4.10730959422195e-10,5.55340347709809e-09)  16  12   6   2
(-0.000553883420722304,0.00214689609518949)   2  12   8   2
(-5.0068592495039e-08,-4.17910989906254e-09)   4  12   8   2
(1.07158006242816e-08,9.76204808590155e-09)   6  12   8   2
(-2.03376199720231e-08,-4.68486913718778e-09)   8  12   8   2
(0.000743177096340539,-0.00288048893871137)  10  12   8   2
(4.84628374629327e-10,-3.0307921440819e-09)  12  12   8   2
(-4.89060201267009e-09,3.92929515545669e-09)  14  12   8   2
(-4.54269821042818e-09,-8.9816293138331e-09)  16  12   8   2
(0.00193631251632491,0.000191391868800754)   4  12  10   2
(2.79905721869964e-08,-7.79789430818621e-08)   6  12  10   2
(1.67258859425222e-08,1.41010773418237e-07)   8  12  10   2
(-3.51251738527699e-05,4.7805966488359e-10)  12  12  10   2
(2.00073656364546e-08,1.0440579460483e-08)  14  12  10   2
(-1.07652192721484e-08,5.460841666063e-09)  16  12  10   2
(0.00200872520172296,5.2857699342024e-19)   2  12  12   2
(8.81733523488647e-10,5.8302852562419e-10)   4  12  12   2
(-5.70527800266974e-10,-1.21459427046561e-09)   6  12  12   2
(-1.53516342560549e-09,-2.22791862065838e-09)   8  12  12   2
(-0.00122248780274665,4.57707118609924e-09)  10  12  12   2
(7.28501556120994e-10,-1.246618278806e-09)  16  12  12   2
(0.000830706865519978,6.71046450499442e-05)   2  12  14   2
(-1.18724440775755e-08,-1.01864319642092e-08)   4  12  14   2
(-1.02748458187786e-09,3.63838355656252e-09)   6  12  14   2
(-2.86481876471413e-09,-5.34395471882225e-09)   8  12  14   2
(-0.000840014725782231,-6.79200536715679e-05)  10  12  14   2
(2.21429122073237e-10,-1.06809398373689e-09)  12  12  14   2
(-1.96763507142481e-09,4.63471842880218e-09)  14  12  14   2
(-0.00138754925956853,2.55055670293457e-05)   2  12  16   2
(-1.21229217726392e-08,-7.32756887261864e-09)   4  12  16   2
(1.90415733371072e-09,5.40401403378669e-09)   6  12  16   2
(-1.81338248052584e-09,-4.19646369686574e-09)   8  12  16   2
(0.0014032062831587,-2.58584113636014e-05)  10  12  16   2
(1.21775260091227e-09,-5.8310658167144e-10)  16  12  16   2
(-6.12087711811136e-07,-7.48653590307877e-07)   4  14   2   2
(-0.0349050182976102,0.0124172216184883)   6  14   2   2
(0.0264799280406249,-0.00190245592680085)   8  14   2   2
(-2.39570249996836e-07,2.17000894310265e-07)  12  14   2   2
(0.180575023362492,4.24337898452371e-16)  14  14   2   2
(-4.28681916939122e-07,-7.91017810294236e-09)  16  14   2   2
(-0.00450985635949067,-0.0035256160863021)   2  14   4   2
(1.22253744792817e-08,3.79437594579906e-08)   4  14   4   2
(4.04707874706383e-08,2.38615655369579e-08)   6  14   4   2
(8.4285727159655e-09,-1.75874058049868e-08)   8  14   4   2
(0.00295480886203094,0.00230989063171231)  10  14   4   2
(-2.34607265158207e-10,-1.36312373273494e-08)  12  14   4   2
(2.17735668436306e-09,-1.59001967124364e-08)  14  14   4   2
(3.38687493698751e-09,3.69779960395747e-08)  16  14   4   2
(-0.0068545948815891,0.0013318929329582)   2  14   6   2
(2.10002611440234e-08,1.05281823650943e-08)   4  14   6   2
(2.4531051453553e-08,-1.88608741114882e-08)   6  14   6   2
(-1.91181462807175e-08,-3.26691466745214e-09)   8  14   6   2
(0.00503781567032261,-0.000978911799961839)  10  14   6   2
(-3.90193742577758e-09,2.90439964695105e-09)  12  14   6   2
(-3.02887458915107e-09,-6.00474435550171e-09)  14  14   6   2
(1.67746465199286e-08,5.31829687039258e-09)  16  14   6   2
(0.00683119516191782,-0.00396294770500046)   2  14   8   2
(4.38999142202719e-08,-1.48718621772687e-08)   4  14   8   2
(-9.15286479253719e-10,7.06087010244537e-09)   6  14   8   2
(2.10022066048183e-08,-5.93345295369447e-09)   8  14   8   2
(-0.0050206022667171,0.00291249276150077)  10  14   8   2
(3.05155174036246e-09,-2.91453299111956e-09)  12  14   8   2
(5.33080747948048e-09,-6.76306689255482e-09)  14  14   8   2
(1.66628622311612e-08,1.08717708437496e-08)  16  14   8   2
(5.05748739796543e-08,7.58719249451901e-08)   4  14  10   2
(0.00261327015675762,-0.000929659424495527)   6  14  10   2
(-0.00198249224475616,0.000142413778388977)   8  14  10   2
(2.00697313374762e-08,-1.04076482721234e-08)  12  14  10   2
(-0.000647303676434912,5.59206185589739e-10)  14  14  10   2
(2.95830058746486e-08,-2.58132394481102e-10)  16  14  10   2
(0.000830706865519981,-6.71046450499437e-05)   2  14  12   2
(7.132920422776e-10,-7.29321100756841e-09)   4  14  12   2
(-5.17274534991594e-09,-1.65611850506368e-09)   6  14  12   2
(3.13976612117617e-09,2.76840891518174e-09)   8  14  12   2
(-0.000296257110988553,2.39051199339871e-05)  10  14  12   2
(-1.08980646705212e-09,3.934584130298e-10)  14  14  12   2
(-1.1701239569342e-09,-3.89200668565249e-09)  16  14  12   2
(0.00402313505853825,-4.33594842210496e-19)   2  14  14   2
(8.93916901747589e-09,-5.32344702971794e-09)   4  14  14   2
(-8.47267551556007e-09,-2.78179784605623e-09)   6  14  14   2
(6.69000952326595e-09,4.62033062792132e-09)   8  14  14   2
(-0.00228927753140972,-1.73062219148024e-10)  10  14  14   2
(-1.50096949010356e-09,2.11564251734454e-09)  12  14  14   2
(1.38457174482693e-11,4.10887694516602e-09)  14  14  14   2
(-1.34151093617975e-09,-1.33911247932989e-10)  16  14  14   2
(0.00150032661555045,-0.000197833250261015)   2  14  16   2
(1.46525371202716e-08,1.6753603215245e-08)   4  14  16   2
(5.21722262326636e-09,5.30622277170464e-09)   6  14  16   2
(7.33094350306839e-09,1.52812716388253e-10)   8  14  16   2
(-0.000853732716667225,0.000112568217286713)  10  14  16   2
(-1.85841375544828e-09,-2.91623466788335e-09)  12  14  16   2
(1.14752961641852e-09,-1.09139644542656e-09)  14  14  16   2
(3.99409741224937e-09,6.96738958333729e-09)  16  14  16   2
(-1.25347539027967e-07,7.03251606812247e-07)   4  16   2   2
(0.00788533287690827,-0.0248472887428035)   6  16   2   2
(0.0263321220907316,-0.0332642892713814)   8  16   2   2
(-3.48571237475513e-07,1.45955938664575e-07)  12  16   2   2
(-4.2868191712379e-07,7.91017828442112e-09)  14  16   2   2
(0.180574395913895,2.70590603842352e-16)  16  16   2   2
(0.00435993950767247,0.00134392690348713)   2  16   4   2
(-1.47883278912187e-08,3.94595859750882e-08)   4  16   4   2
(3.67596352544484e-08,9.71319463074624e-09)   6  16   4   2
(-1.8673759734016e-08,2.58391772684416e-08)   8  16   4   2
(-0.00285660142694745,-0.000880538388227597)  10  16   4   2
(8.05052825295141e-09,-5.18413969822454e-09)  12  16   4   2
(-6.0788947138526e-09,-4.41522197534984e-09)  14  16   4   2
(-3.98164711961467e-09,2.73438633916218e-08)  16  16   4   2
(-0.00112552641107582,-0.0023183709492849)   2  16   6   2
(2.89628535704241e-08,1.83764928595373e-08)   4  16   6   2
(2.13827008337114e-08,-1.5141852989403e-08)   6  16   6   2
(-7.51791105801461e-09,1.88877673051891e-08)   8  16   6   2
(0.000827128847682382,0.00170394127553308)  10  16   6   2
(6.88889836118564e-09,3.12042738677833e-09)  12  16   6   2
(-1.33787578777317e-08,6.55132318674084e-09)  14  16   6   2
(6.85037220146666e-09,1.33921254892079e-08)  16  16   6   2
(0.00765188062273672,-0.00477903159024167)   2  16   8   2
(-4.15048671246168e-08,1.93298417181791e-08)   4  16   8   2
(1.40328091200857e-08,1.75581182709098e-08)   6  16   8   2
(-5.17896457116723e-09,-2.2673131014321e-09)   8  16   8   2
(-0.0056237605563161,0.0035124460030727)  10  16   8   2
(2.06399444195025e-10,-9.00595912902532e-09)  12  16   8   2
(-8.31572351693194e-09,-1.74682845477766e-08)  14  16   8   2
(-2.87382853681953e-09,-2.17740457624821e-09)  16  16   8   2
(-2.22768991818183e-08,-4.00269948888847e-08)   4  16  10   2
(-0.000590382343135477,0.00186026666543563)   6  16  10   2
(-0.00197140476166011,0.00249043314773502)   8  16  10   2
(-1.07634978706233e-08,-5.48264658129683e-09)  12  16  10   2
(2.96748774417084e-08,2.64038073950123e-10)  14  16  10   2
(-0.000647272444108577,5.86531295504785e-10)  16  16  10   2
(-0.00138754925956852,-2.55055670293468e-05)   2  16  12   2
(3.26147228451024e-09,-2.82330340349583e-09)   4  16  12   2
(-2.63299062555717e-11,-1.44780477417638e-09)   6  16  12   2
(-3.71527135771491e-09,-3.49522957408293e-09)   8  16  12   2
(0.000494759332512789,9.07435875542287e-06)  10  16  12   2
(-6.65018913822427e-10,-2.06837880208288e-09)  12  16  12   2
(-1.84373232792449e-09,1.14126833776833e-09)  14  16  12   2
(1.72538625385835e-10,-2.48336549843606e-09)  16  16  12   2
(0.00150032661555045,0.000197833250261013)   2  16  14   2
(-1.02280332590343e-08,-9.76665472245065e-09)   4  16  14   2
(-6.14694338843287e-09,8.05387762652637e-09)   6  16  14   2
(-6.96343467431992e-10,-1.59556321363736e-08)   8  16  14   2
(-0.00085370238317061,-0.000112565364925177)  10  16  14   2
(-2.48704712922805e-09,-1.24627104922481e-09)  12  16  14   2
(3.39001889104974e-09,-9.45969315025148e-09)  14  16  14   2
(2.99455040620267e-10,-8.97203698829662e-09)  16  16  14   2
(0.00314589466644951,5.14816533737691e-19)   2  16  16   2
(-1.46813758193663e-08,4.73607744487328e-09)   4  16  16   2
(5.91670366184132e-09,1.10299446931061e-08)   6  16  16   2
(-4.49652771641676e-10,-1.70579704614171e-09)   8  16  16   2
(-0.00179012556696836,-4.70420597855328e-09)  10  16  16   2
(-1.99968591466763e-09,-7.18043399705112e-09)  14  16  16   2
(6.32596538672234e-10,8.62840407322658e-10)  16  16  16   2
(0.0374137395057712,-1.73505302473285e-17)   4   2   2   4
(0.0176467732664948,-0.0193492692847548)   6   2   2   4
(0.0044099947764967,-0.00883914408991042)   8   2   2   4
(-0.00510090309276628,-2.95338962521018e-05)  12   2   2   4
(-0.00450985635949066,0.00352561608630209)  14   2   2   4
(0.00435993950767247,-0.00134392690348713)  16   2   2   4
(0.448015761417673,-2.27304420136409e-16)   2   2   4   4
(-2.04160214353178e-08,-5.31893267879935e-09)   4   2   4   4
(-1.16329252495637e-08,3.99994906637624e-09)   6   2   4   4
(-1.10532709169491e-08,3.05862564601582e-08)   8   2   4   4
(-0.0184399129861266,4.25809722411084e-09)  10   2   4   4
(3.0118464547966e-09,5.78856602773848e-09)  12   2   4   4
(-3.73276658705719e-09,6.13671546445873e-09)  14   2   4   4
(-5.91617299212857e-09,2.92310124358742e-09)  16   2   4   4
(-8.21589358409925e-07,-5.90061774065893e-07)   2   2   6   4
(-8.2031235288438e-08,-2.01940950642611e-08)   4   2   6   4
(-7.91501361653883e-08,2.77147343317264e-08)   6   2   6   4
(7.79845645174908e-09,4.06991139453272e-08)   8   2   6   4
(6.58324754564462e-08,9.18921093638638e-08)  10   2   6   4
(1.58433313447907e-08,2.52482210692877e-08)  12   2   6   4
(2.13644608228694e-08,1.32824718054917e-08)  14   2   6   4
(-1.02460984297275e-08,3.1017527653556e-08)  16   2   6   4
(1.16795956899816e-06,-2.64938052464111e-07)   2   2   8   4
(1.08047088946072e-07,-9.87081170537976e-08)   4   2   8   4
(1.72300938397561e-08,1.84424327159396e-09)   6   2   8   4
(-5.60092725291553e-08,-7.45414924024263e-08)   8   2   8   4
(-1.5311561014185e-07,2.94672275963832e-08)  10   2   8   4
(-6.18924552810876e-09,1.01329330880386e-08)  12   2   8   4
(-2.54232124217879e-08,-2.29855001685972e-08)  14   2   8   4
(-1.46877546841131e-08,-6.96697902621489e-09)  16   2   8   4
(0.00292022051828925,-2.32250410349922e-08)   4   2  10   4
(0.00180955005772329,-0.00198396339159158)   6   2  10   4
(0.000452103707391467,-0.000906277996882967)   8   2  10   4
(-5.30044606894521e-05,-2.89394837171309e-07)  12   2  10   4
(-0.000303865272893693,0.000237571731714774)  14   2  10   4
(0.000293676929812274,-9.05711012808844e-05)  16   2  10   4
(-0.0198953013398624,0.00196661776041841)   2   2  12   4
(-2.76131380810714e-08,2.8692874063337e-08)   4   2  12   4
(1.21519376184913e-08,3.10525356631598e-08)   6   2  12   4
(4.27770203079358e-09,1.99594594507068e-08)   8   2  12   4
(0.00193631245034949,-0.000191392537618423)  10   2  12   4
(1.04293742983932e-08,-8.49165848037321e-09)  12   2  12   4
(2.36350337032515e-09,-3.0818296247766e-09)  14   2  12   4
(-7.93826053195332e-09,7.16747866172375e-09)  16   2  12   4
(-6.12087711804133e-07,7.48653590282376e-07)   2   2  14   4
(3.01947164539741e-08,-4.25947772400561e-09)   4   2  14   4
(1.22360642341753e-08,-3.52987410419169e-09)   6   2  14   4
(-2.08648783890406e-08,-5.87000164824048e-08)   8   2  14   4
(5.06256172269215e-08,-7.59544456582681e-08)  10   2  14   4
(-5.7888180903388e-09,-1.44629883188913e-09)  12   2  14   4
(-1.13649088608681e-09,-1.64983823240689e-08)  14   2  14   4
(8.4588875693703e-09,-1.4689825700995e-08)  16   2  14   4
(-1.2534753903984e-07,-7.03251606790341e-07)   2   2  16   4
(-6.74977871103435e-09,4.08827779392406e-08)   4   2  16   4
(1.11272880982597e-08,3.81503489983521e-08)   6   2  16   4
(-1.08560966782482e-08,1.13277688665232e-08)   8   2  16   4
(-2.19509171581874e-08,3.97222343753257e-08)  10   2  16   4
(8.83724158453197e-09,-5.91300673997462e-09)  12   2  16   4
(4.53628735039083e-10,-1.15780121674913e-08)  14   2  16   4
(-2.18905695281986e-08,2.35850973418688e-09)  16   2  16   4
(-0.00187620301472967,0.0218506568692618)   2   4   2   4
(-2.04160214353176e-08,5.31893267879944e-09)   4   4   2   4
(5.70677878017029e-08,-1.05291238028468e-08)   6   4   2   4
(-1.17499506954012e-07,-4.01240539323662e-08)   8   4   2   4