 &FCI NORB= 14,NELEC= 10,MS2= 0,
    ORBSYM=1,1,1,1,1,1,1,1,1,1,1,1,1,1,
    ISYM=1,
 &End
   5.92946559391461                1           1           1           1
 -0.460496112874227                1           1           1           2
 -0.409026121690000                1           1           1           9
 -0.761067002915595                1           1           2           1
   1.45008415878948                1           1           2           2
  0.513563930526913                1           1           2           9
   1.41187939878412                1           1           3           3
 -0.536618124302499                1           1           3           6
 -0.108588423201887                1           1           3           7
  0.231936874997960                1           1           3           8
   1.41187939878412                1           1           4           4
  0.100161060511802                1           1           4           6
 -0.584595827393609                1           1           4           7
 -4.196011818805318E-002           1           1           4           8
   1.41187939878412                1           1           5           5
 -0.235698794215079                1           1           5           6
 -1.201627118624149E-003           1           1           5           7
 -0.545884425006840                1           1           5           8
 -0.637103917719151                1           1           6           3
  0.118916974967848                1           1           6           4
 -0.279835172155790                1           1           6           5
   1.17954988305355                1           1           6           6
 -0.128922424919566                1           1           7           3
 -0.694065807782486                1           1           7           4
 -1.426640864782783E-003           1           1           7           5
   1.17954988305355                1           1           7           7
  0.275368805175574                1           1           8           3
 -4.981746697489023E-002           1           1           8           4
 -0.648105403159422                1           1           8           5
   1.17954988305355                1           1           8           8
 -0.678245062551481                1           1           9           1
  0.652105858241052                1           1           9           2
   1.16386404488200                1           1           9           9
   1.25743535727936                1           1          10          10
   1.25743535606625                1           1          11          11
   1.25743530589837                1           1          12          12
   1.25743535191918                1           1          13          13
  1.445814048423526E-008           1           1          13          14
  1.445814048407277E-008           1           1          14          13
   1.25743530760211                1           1          14          14
 -0.460496112874227                1           2           1           1
  5.934813378482757E-002           1           2           1           2
  5.387317211109827E-002           1           2           1           9
  0.102212545993482                1           2           2           1
 -6.258497354910374E-002           1           2           2           2
  4.166979818674161E-003           1           2           2           9
 -5.361838698586983E-002           1           2           3           3
 -1.211666806172761E-002           1           2           3           6
 -2.451892360128292E-003           1           2           3           7
  5.237061512369801E-003           1           2           3           8
 -5.361838698586976E-002           1           2           4           4
  2.261605167566020E-003           1           2           4           6
 -1.319998947110923E-002           1           2           4           7
 -9.474462394954500E-004           1           2           4           8
 -5.361838698586968E-002           1           2           5           5
 -5.322004462234067E-003           1           2           5           6
 -2.713236148941824E-005           1           2           5           7
 -1.232589821015128E-002           1           2           5           8
 -7.104253995845331E-003           1           2           6           3
  1.326026054923095E-003           1           2           6           4
 -3.120401687503384E-003           1           2           6           5
 -6.656921960324641E-002           1           2           6           6
 -1.437595385801183E-003           1           2           7           3
 -7.739427825166754E-003           1           2           7           4
 -1.590826674016474E-005           1           2           7           5
 -6.656921960324651E-002           1           2           7           7
  3.070597872798052E-003           1           2           8           3
 -5.555073967937459E-004           1           2           8           4
 -7.226929974952587E-003           1           2           8           5
 -6.656921960324638E-002           1           2           8           8
  9.156943230138281E-002           1           2           9           1
 -5.156709953902279E-004           1           2           9           2
 -6.988175987911262E-002           1           2           9           9
 -4.671531026888123E-002           1           2          10          10
 -4.671531420299751E-002           1           2          11          11
 -2.673003178862631E-008           1           2          11          12
 -2.673003178860720E-008           1           2          12          11
 -4.671547689773686E-002           1           2          12          12
 -2.418936091730768E-008           1           2          12          13
 -2.418936091731010E-008           1           2          13          12
 -4.671532765198744E-002           1           2          13          13
  4.688783901236122E-008           1           2          13          14
  4.688783901234925E-008           1           2          14          13
 -4.671547137251873E-002           1           2          14          14
  1.549347123909103E-002           1           3           1           3
 -1.537017700293389E-002           1           3           1           6
 -3.110262604812130E-003           1           3           1           7
  6.643291869538874E-003           1           3           1           8
  2.785864638883140E-004           1           3           2           3
 -9.820337564940501E-003           1           3           2           6
 -1.987213855054258E-003           1           3           2           7
  4.244542446638258E-003           1           3           2           8
  4.749964449862948E-002           1           3           3           1
  3.163863447299423E-003           1           3           3           2
  1.420393392557573E-002           1           3           3           9
  3.972418600298348E-003           1           3           3          10
  3.130319781010044E-003           1           3           3          11
  1.485301430608736E-003           1           3           3          12
 -1.287621099673864E-003           1           3           3          13
 -3.399845291273296E-003           1           3           3          14
 -1.853746639634760E-003           1           3           4          10
  2.488097861818396E-003           1           3           4          11
 -1.002493661488081E-003           1           3           4          12
 -4.289357389838249E-003           1           3           4          13
  1.311829415541383E-003           1           3           4          14
 -1.877499647406300E-003           1           3           5          10
 -1.435196319644443E-003           1           3           5          11
 -2.463705443839833E-003           1           3           5          12
 -7.612003134592578E-004           1           3           5          13
 -4.303458972638806E-003           1           3           5          14
 -4.858070556403185E-002           1           3           6           1
 -1.193217417856852E-002           1           3           6           2
 -2.712667857881962E-003           1           3           6           9
  2.579991797958299E-003           1           3           6          10
  1.503141924080000E-003           1           3           6          11
  4.358478407891250E-004           1           3           6          12
 -6.067237831885687E-004           1           3           6          13
 -4.086635555262834E-003           1           3           6          14
 -9.830644878218071E-003           1           3           7           1
 -2.414558735050535E-003           1           3           7           2
 -5.489272762464444E-004           1           3           7           9
 -9.008034258295213E-004           1           3           7          10
  2.467029221907249E-003           1           3           7          11
 -5.884943710128534E-004           1           3           7          12
 -3.644264156336804E-003           1           3           7          13
  5.399107123309228E-004           1           3           7          14
  2.099753348503341E-002           1           3           8           1
  5.157319638627103E-003           1           3           8           2
  1.172468236480730E-003           1           3           8           9
 -2.785343832140510E-003           1           3           8          10
 -1.933499812629497E-003           1           3           8          11
 -2.382242256483334E-003           1           3           8          12
 -4.085496171726639E-004           1           3           8          13
 -2.071547049757209E-003           1           3           8          14
  1.561320424174646E-002           1           3           9           3
 -2.973050121417180E-003           1           3           9           6
 -6.016174448160915E-004           1           3           9           7
  1.285010556194122E-003           1           3           9           8
 -4.380936173949104E-003           1           3          10           3
  2.044384768321776E-003           1           3          10           4
  2.070587690221871E-003           1           3          10           5
  5.824603291089178E-003           1           3          10           6
 -2.033652433901076E-003           1           3          10           7
 -6.288180532572864E-003           1           3          10           8
 -3.452214015122652E-003           1           3          11           3
 -2.743979711493037E-003           1           3          11           4
  1.582744438565238E-003           1           3          11           5
  3.393507368487819E-003           1           3          11           6
  5.569559267339840E-003           1           3          11           7
 -4.365191156954211E-003           1           3          11           8
 -1.637917059900809E-003           1           3          12           3
  1.105492668669310E-003           1           3          12           4
  2.716813467117978E-003           1           3          12           5
  9.840455766242896E-004           1           3          12           6
 -1.328748428026550E-003           1           3          12           7
 -5.378823705593316E-003           1           3          12           8
  1.420129444126971E-003           1           3          13           3
  4.730383308323552E-003           1           3          13           4
  8.395454264110069E-004           1           3          13           5
 -1.369461990507059E-003           1           3          13           6
 -8.227452653063471E-003           1           3          13           7
 -9.223026848967503E-004           1           3          13           8
  3.749229338283679E-003           1           3          14           3
 -1.446519021089344E-003           1           3          14           4
  4.745659842354043E-003           1           3          14           5
 -9.226925120237255E-003           1           3          14           6
  1.219284406545547E-003           1           3          14           7
 -4.677226660824008E-003           1           3          14           8
  1.549347123909098E-002           1           4           1           4
  2.868880418209914E-003           1           4           1           6
 -1.674438662297435E-002           1           4           1           7
 -1.201849908541000E-003           1           4           1           8
  2.785864638883487E-004           1           4           2           4
  1.832989570314725E-003           1           4           2           6
 -1.069834972779399E-002           1           4           2           7
 -7.678878260161002E-004           1           4           2           8
 -1.853746639634736E-003           1           4           3          10
  2.488097861818393E-003           1           4           3          11
 -1.002493661488062E-003           1           4           3          12
 -4.289357389838225E-003           1           4           3          13
  1.311829415541374E-003           1           4           3          14
  4.749964449862945E-002           1           4           4           1
  3.163863447299443E-003           1           4           4           2
  1.420393392557571E-002           1           4           4           9
  5.545426357176167E-005           1           4           4          10
 -2.080223560666529E-004           1           4           4          11
 -5.409586112487062E-003           1           4           4          12
  1.973475380707069E-003           1           4           4          13
  2.792877018712066E-003           1           4           4          14
  2.790262036692404E-003           1           4           5          10
 -3.648163749946209E-003           1           4           5          11
 -4.949500431271330E-004           1           4           5          12
 -2.959960220905611E-003           1           4           5          13
  8.063078393168270E-004           1           4           5          14
  9.067705262526824E-003           1           4           6           1
  2.227168941582842E-003           1           4           6           2
  5.063259646977038E-004           1           4           6           9
 -4.715304208600872E-004           1           4           6          10
  6.827465885631185E-004           1           4           6          11
 -1.550998500142416E-004           1           4           6          12
 -4.399451385873710E-003           1           4           6          13
  8.449464926273305E-004           1           4           6          14
 -5.292418663921430E-002           1           4           7           1
 -1.299900044485409E-002           1           4           7           2
 -2.955200801098110E-003           1           4           7           9
 -2.278155936804255E-004           1           4           7          10
  1.985307255195278E-004           1           4           7          11
 -4.501789831315651E-003           1           4           7          12
  9.419686192957640E-004           1           4           7          13
  2.443840685095629E-003           1           4           7          14
 -3.798701636802506E-003           1           4           8           1
 -9.330199933592536E-004           1           4           8           2
 -2.121133423691355E-004           1           4           8           9
  2.690922212957577E-003           1           4           8          10
 -3.546639520568884E-003           1           4           8          11
 -3.640048510408749E-004           1           4           8          12
 -7.404779908290666E-004           1           4           8          13
  3.481872680543125E-004           1           4           8          14
  1.561320424174644E-002           1           4           9           4
  5.549269389716355E-004           1           4           9           6
 -3.238863200663619E-003           1           4           9           7
 -2.324735763180198E-004           1           4           9           8
  2.044384768321797E-003           1           4          10           3
 -6.113674803990453E-005           1           4          10           4
 -3.077197779343744E-003           1           4          10           5
 -1.064523170685408E-003           1           4          10           6
 -5.142706726508889E-004           1           4          10           7
  6.075056843369723E-003           1           4          10           8
 -2.743979711493033E-003           1           4          11           3
  2.293460278025054E-004           1           4          11           4
  4.023308800100826E-003           1           4          11           5
  1.541353082974132E-003           1           4          11           6
  4.480444163908104E-004           1           4          11           7
 -8.006960675870489E-003           1           4          11           8
  1.105492668669328E-003           1           4          12           3
  5.965452913328305E-003           1           4          12           4
  5.457097491606854E-004           1           4          12           5
 -3.503064625790568E-004           1           4          12           6
 -1.016429560457785E-002           1           4          12           7
 -8.220586567560395E-004           1           4          12           8
  4.730383308323580E-003           1           4          13           3
 -2.176540276262403E-003           1           4          13           4
  3.264292120545614E-003           1           4          13           5
 -9.932403140039910E-003           1           4          13           6
  2.126295387173202E-003           1           4          13           7
 -1.671786015269330E-003           1           4          13           8
 -1.446519021089353E-003           1           4          14           3
 -3.079921277782083E-003           1           4          14           4
 -8.890928415960283E-004           1           4          14           5
  1.908056181595638E-003           1           4          14           6
  5.517695724193010E-003           1           4          14           7
  7.861846432701417E-004           1           4          14           8
  1.549347123909105E-002           1           5           1           5
 -6.751043288321146E-003           1           5           1           6
 -3.441781160258240E-005           1           5           1           7
 -1.563558861603075E-002           1           5           1           8
  2.785864638882515E-004           1           5           2           5
 -4.313387151897123E-003           1           5           2           6
 -2.199028209755538E-005           1           5           2           7
 -9.989914768493161E-003           1           5           2           8
 -1.877499647406258E-003           1           5           3          10
 -1.435196319644462E-003           1           5           3          11
 -2.463705443839882E-003           1           5           3          12
 -7.612003134592760E-004           1           5           3          13
 -4.303458972638816E-003           1           5           3          14
  2.790262036692401E-003           1           5           4          10
 -3.648163749946188E-003           1           5           4          11
 -4.949500431271348E-004           1           5           4          12
 -2.959960220905600E-003           1           5           4          13
  8.063078393167984E-004           1           5           4          14
  4.749964449862946E-002           1           5           5           1
  3.163863447299360E-003           1           5           5           2
  1.420393392557572E-002           1           5           5           9
 -4.027872863870012E-003           1           5           5          10
 -2.922297424943359E-003           1           5           5          11
  3.924284681878339E-003           1           5           5          12
 -6.858542810332007E-004           1           5           5          13
  6.069682725611900E-004           1           5           5          14
 -2.133810470610448E-002           1           5           6           1
 -5.240969208612722E-003           1           5           6           2
 -1.191485181459047E-003           1           5           6           9
 -3.077492516351872E-003           1           5           6          10
 -1.504810647568604E-003           1           5           6          11
 -4.781355790270253E-004           1           5           6          12
 -3.767134727291847E-004           1           5           6          13
 -3.091672935477085E-003           1           5           6          14
 -1.087847961220352E-004           1           5           7           1
 -2.671923184806445E-005           1           5           7           2
 -6.074366694347382E-006           1           5           7           9
  1.957471700401895E-003           1           5           7          10
 -3.154115196811422E-003           1           5           7          11
 -7.595479425557094E-004           1           5           7          12
 -2.496024644964852E-003           1           5           7          13
  6.481347421230664E-006           1           5           7          14
 -4.941959528057010E-002           1           5           8           1
 -1.213821849386056E-002           1           5           8           2
 -2.759510099960154E-003           1           5           8           9
 -2.265367273140854E-003           1           5           8          10
 -1.947921466729736E-003           1           5           8          11
  3.705115685752642E-003           1           5           8          12
 -4.431665900137948E-004           1           5           8          13
  1.875715706084666E-003           1           5           8          14
  1.561320424174645E-002           1           5           9           5
 -1.305852890581835E-003           1           5           9           6
 -6.657430096238478E-006           1           5           9           7
 -3.024388634200220E-003           1           5           9           8
  2.070587690221896E-003           1           5          10           3
 -3.077197779343750E-003           1           5          10           4
  4.442072921989067E-003           1           5          10           5
 -6.947759201210196E-003           1           5          10           6
  4.419220427531923E-003           1           5          10           7
 -5.114347595119407E-003           1           5          10           8
  1.582744438565226E-003           1           5          11           3
  4.023308800100860E-003           1           5          11           4
  3.222867987320164E-003           1           5          11           5
 -3.397305893892176E-003           1           5          11           6
 -7.120816840391678E-003           1           5          11           7
 -4.397500193476725E-003           1           5          11           8
  2.716813467117935E-003           1           5          12           3
  5.457097491606833E-004           1           5          12           4
 -4.327535853427489E-003           1           5          12           5
 -1.079626745018334E-003           1           5          12           6
 -1.715177147689092E-003           1           5          12           7
  8.365546570384458E-003           1           5          12           8
  8.395454264109904E-004           1           5          13           3
  3.264292120545628E-003           1           5          13           4
  7.564108321354178E-004           1           5          13           5
 -8.502892158997055E-004           1           5          13           6
 -5.635152582901782E-003           1           5          13           7
 -1.000511008411210E-003           1           5          13           8
  4.745659842354040E-003           1           5          14           3
 -8.890928415960552E-004           1           5          14           4
 -6.693080605016089E-004           1           5          14           5
 -6.980490375075432E-003           1           5          14           6
  1.478425015032623E-005           1           5          14           7
  4.235130498120153E-003           1           5          14           8
 -1.537017700293390E-002           1           6           1           3
  2.868880418209915E-003           1           6           1           4
 -6.751043288321140E-003           1           6           1           5
  1.873746509582241E-002           1           6           1           6
  7.323848577833192E-004           1           6           2           3
 -1.367013910566362E-004           1           6           2           4
  3.216854222083711E-004           1           6           2           5
  9.422369636541941E-003           1           6           2           6
 -4.532380561526110E-002           1           6           3           1
 -1.717700883694898E-003           1           6           3           2
 -1.142692018068674E-002           1           6           3           9
 -3.431968166343866E-003           1           6           3          10
 -1.999520979534203E-003           1           6           3          11
 -5.798333818090029E-004           1           6           3          12
  8.068564126462860E-004           1           6           3          13
  5.436866896304751E-003           1           6           3          14
  8.459797072184319E-003           1           6           4           1
  3.206129915506988E-004           1           6           4           2
  2.132862070525416E-003           1           6           4           9
  6.272362017768099E-004           1           6           4          10
 -9.081909463461036E-004           1           6           4          11
  2.064381357005820E-004           1           6           4          12
  5.852398851714312E-003           1           6           4          13
 -1.124364752795983E-003           1           6           4          14
 -1.990757644766701E-002           1           6           5           1
 -7.544658086890040E-004           1           6           5           2
 -5.019046480549997E-003           1           6           5           9
  4.093752321386656E-003           1           6           5          10
  2.001765466001447E-003           1           6           5          11
  6.361743627350115E-004           1           6           5          12
  5.009700447580010E-004           1           6           5          13
  4.113183497925610E-003           1           6           5          14
  5.718260470387357E-002           1           6           6           1
  1.196611685532168E-002           1           6           6           2
  3.001277644219910E-003           1           6           6           9
 -1.090980231112671E-003           1           6           6          10
 -5.924094483568758E-004           1           6           6          11
 -2.111776832755872E-004           1           6           6          12
 -4.062263412162845E-005           1           6           6          13
  4.643486788350411E-003           1           6           6          14
 -1.243096152241972E-006           1           6           7          10
 -8.657951769444399E-004           1           6           7          11
  6.784262211609760E-005           1           6           7          12
  4.074918901191084E-003           1           6           7          13
 -7.180807815513934E-005           1           6           7          14
  3.549604141135755E-003           1           6           8          10
  1.763020993111715E-003           1           6           8          11
  5.693453978876501E-004           1           6           8          12
  3.853978696898204E-004           1           6           8          13
  1.088006608195300E-003           1           6           8          14
 -1.284844587156540E-002           1           6           9           3
  2.398193251667032E-003           1           6           9           4
 -5.643423250755741E-003           1           6           9           5
  3.241944722745076E-003           1           6           9           6
  2.777665597270228E-003           1           6          10           3
 -5.076548463832866E-004           1           6          10           4
 -3.313281585508820E-003           1           6          10           5
 -2.453345023425645E-003           1           6          10           6
 -2.800418966841515E-006           1           6          10           7
  7.982177612337124E-003           1           6          10           8
  1.618312773677013E-003           1           6          11           3
  7.350474055451799E-004           1           6          11           4
 -1.620125316035673E-003           1           6          11           5
 -1.332177456798524E-003           1           6          11           6
 -1.946944910637269E-003           1           6          11           7
  3.964627880954356E-003           1           6          11           8
  4.692790552789320E-004           1           6          12           3
 -1.670611581769052E-004           1           6          12           4
 -5.148641663097427E-004           1           6          12           5
 -4.749007312443258E-004           1           6          12           6
  1.526692592538432E-004           1           6          12           7
  1.280482350662087E-003           1           6          12           8
 -6.530660550560499E-004           1           6          13           3