  &FCI NORB=  6,NELEC=  6,MS2=  0,
  ORBSYM= 1, 2, 3, 5, 6, 7,
  ISYM=0
 &END
    0.88091567576        1    1    1    1
    0.51846411892E-01    2    1    2    1
    0.63880769372        2    2    1    1
    0.58528119507        2    2    2    2
    0.51846411892E-01    3    1    3    1
    0.23419655205E-01    3    2    3    2
    0.63880769372        3    3    1    1
    0.53840026018        3    3    2    2
    0.58528119507        3    3    3    3
    0.20120241792        4    1    4    1
    0.35232254655E-01    4    2    4    2
    0.35232254655E-01    4    3    4    3
    0.85919148688        4    4    1    1
    0.65506573053        4    4    2    2
    0.65506573053        4    4    3    3
    0.89932204656        4    4    4    4
   -0.23695371700E-01    5    1    4    2
    0.18966852655E-01    5    1    5    1
   -0.15058838685        5    2    4    1
    0.18504034365        5    2    5    2
    0.17862665844E-01    5    3    5    3
   -0.45899931213E-01    5    4    2    1
    0.52366579745E-01    5    4    5    4
    0.65968119075        5    5    1    1
    0.60990508994        5    5    2    2
    0.56519983618        5    5    3    3
    0.70470357514        5    5    4    4
    0.67209037327        5    5    5    5
   -0.23695371700E-01    6    1    4    3
    0.18966852655E-01    6    1    6    1
    0.17862610200E-01    6    2    5    3
    0.17862665844E-01    6    2    6    2
   -0.15058838685        6    3    4    1
    0.14903273962        6    3    5    2
    0.18504034365        6    3    6    3
   -0.45899931213E-01    6    4    3    1
    0.52366579745E-01    6    4    6    4
    0.22173470972E-01    6    5    3    2
    0.26932904532E-01    6    5    6    5
    0.65968119075        6    6    1    1
    0.56519983618        6    6    2    2
    0.60990508994        6    6    3    3
    0.70470357514        6    6    4    4
    0.61749158889        6    6    5    5
    0.67209037327        6    6    6    6
    -4.3806853088        1    1    0    0
    -3.4743261854        2    2    0    0
    -3.4743261854        3    3    0    0
    -2.7623688746        4    4    0    0
    -3.1284650929        5    5    0    0
    -3.1284650929        6    6    0    0
   -0.56331000000        1    0    0    0
   -0.75882000000        2    0    0    0
   -0.75882000000        3    0    0    0
   -0.12692000000        4    0    0    0
   -0.38258000000        5    0    0    0
   -0.38258000000        6    0    0    0
    -95.449898305        0    0    0    0
