 &FCI NORB= 24,NELEC=10,MS2= 0,
  ORBSYM=1,1,1,1,1,1,1,1,1,1,1,2,2,2,2,3,3,3,3,3,3,3,4,4,
  ISYM=1
 &END
        4.73993376529  1  1  1  1
      -0.432785577448  2  1  1  1
      0.0641473684306  2  1  2  1
        1.04623275924  2  2  1  1
     -0.0146414092125  2  2  2  1
       0.748662230587  2  2  2  2
      -0.131631126714  3  1  1  1
      0.0162149870026  3  1  2  1
     -0.0133577797775  3  1  2  2
      0.0295369651307  3  1  3  1
      0.0892545792726  3  2  1  1
    -0.00732109666445  3  2  2  1
     -0.0119617740356  3  2  2  2
      0.0233850711686  3  2  3  1
       0.126616132335  3  2  3  2
       0.981198534102  3  3  1  1
     -0.0122832343768  3  3  2  1
       0.680135647101  3  3  2  2
     0.00923136797120  3  3  3  1
      0.0700187108823  3  3  3  2
       0.723813766883  3  3  3  3
       0.149274614650  4  1  1  1
     -0.0234365147801  4  1  2  1
     0.00232225755327  4  1  2  2
     0.00104489849501  4  1  3  1
     0.00930620711396  4  1  3  2
     0.00723197401860  4  1  3  3
      0.0104848202457  4  1  4  1
      -0.212045447886  4  2  1  1
     0.00482403727059  4  2  2  1
      -0.108747295552  4  2  2  2
     0.00962882940057  4  2  3  1
      0.0173706492670  4  2  3  2
     -0.0781600614508  4  2  3  3
    0.000641868305814  4  2  4  1
      0.0371004613091  4  2  4  2
       0.112541739734  4  3  1  1
   -0.000679277494621  4  3  2  1
      0.0613822738444  4  3  2  2
    -0.00422620127407  4  3  3  1
     0.00208183066121  4  3  3  2
      0.0595749601820  4  3  3  3
   -0.000959517702106  4  3  4  1
     -0.0211286835922  4  3  4  2
      0.0209343081267  4  3  4  3
       0.414235236895  4  4  1  1
    -0.00211178112378  4  4  2  1
       0.367810571181  4  4  2  2
    -0.00658742196925  4  4  3  1
     -0.0285344638679  4  4  3  2
       0.342499319900  4  4  3  3
   -0.000929069549142  4  4  4  1
     -0.0201239058542  4  4  4  2
     0.00366907158185  4  4  4  3
       0.299891350612  4  4  4  4
      -0.127357444548  5  1  1  1
      0.0205031012383  5  1  2  1
   -0.000434658830013  5  1  2  2
    -0.00555225495236  5  1  3  1
     -0.0124291606394  5  1  3  2
    -0.00841328829490  5  1  3  3
     -0.0104380940203  5  1  4  1
    -0.00205513208249  5  1  4  2
     0.00157613055626  5  1  4  3
     0.00183813379310  5  1  4  4
      0.0111177392417  5  1  5  1
       0.161097981091  5  2  1  1
    -0.00398875301348  5  2  2  1
      0.0642353520618  5  2  2  2
     -0.0106845509051  5  2  3  1
     -0.0141807341982  5  2  3  2
      0.0440464866210  5  2  3  3
    -0.00131113612101  5  2  4  1
     -0.0332613302494  5  2  4  2
      0.0210479168129  5  2  4  3
     0.00913388779877  5  2  4  4
     0.00305024469603  5  2  5  1
      0.0499542946918  5  2  5  2
      -0.143527540142  5  3  1  1
     0.00233691193607  5  3  2  1
     -0.0575123615524  5  3  2  2
     0.00403090233175  5  3  3  1
    -0.00249811725256  5  3  3  2
     -0.0589515447157  5  3  3  3
    0.000249009513389  5  3  4  1
      0.0251428620419  5  3  4  2
     -0.0192228970639  5  3  4  3
    -0.00682533260845  5  3  4  4
   -0.000877698289227  5  3  5  1
     -0.0356728221376  5  3  5  2
      0.0340096517925  5  3  5  3
      -0.163676836607  5  4  1  1
     0.00227527895239  5  4  2  1
      -0.108640017587  5  4  2  2
     0.00641627830329  5  4  3  1
      0.0194150530806  5  4  3  2
     -0.0865981508717  5  4  3  3
    0.000830904536717  5  4  4  1
      0.0213453503114  5  4  4  2
     -0.0111989936037  5  4  4  3
     -0.0366180880043  5  4  4  4
    -0.00174685345653  5  4  5  1
    -0.00521285305356  5  4  5  2
     0.00262493937172  5  4  5  3
      0.0379507918169  5  4  5  4
       0.558338884543  5  5  1  1
    -0.00206960408708  5  5  2  1
       0.507859486882  5  5  2  2
     -0.0104303249542  5  5  3  1
     -0.0618224475778  5  5  3  2
       0.450942154737  5  5  3  3
    -0.00199905962352  5  5  4  1
     -0.0359415998221  5  5  4  2
     0.00840366223608  5  5  4  3
       0.345316101632  5  5  4  4
     0.00333485534114  5  5  5  1
     -0.0166242886339  5  5  5  2
      0.0158036789393  5  5  5  3
     -0.0928240915705  5  5  5  4
       0.520368124745  5  5  5  5
      0.0749002760567  6  1  1  1
    -0.00738647446610  6  1  2  1
      0.0118677392941  6  1  2  2
     -0.0315327772944  6  1  3  1
     -0.0258142234996  6  1  3  2
     -0.0121162241660  6  1  3  3
    -0.00543369551070  6  1  4  1
    -0.00950820477918  6  1  4  2
     0.00439401159789  6  1  4  3
     0.00661594645738  6  1  4  4
      0.0101686973949  6  1  5  1
      0.0107488016474  6  1  5  2
    -0.00383929193306  6  1  5  3
    -0.00644205193450  6  1  5  4
      0.0105838675770  6  1  5  5
      0.0355861100892  6  1  6  1
     -0.0142821517462  6  2  1  1
     0.00355245173886  6  2  2  1
     0.00999896347028  6  2  2  2
     -0.0139157315802  6  2  3  1
     -0.0307731715566  6  2  3  2
     -0.0240837647768  6  2  3  3
    -0.00525574493063  6  2  4  1
     -0.0106453223915  6  2  4  2
      0.0106389494963  6  2  4  3
     0.00208246950500  6  2  4  4
     0.00706804022030  6  2  5  1
     0.00492190382535  6  2  5  2
   -0.000297120470393  6  2  5  3
     -0.0101428974085  6  2  5  4
      0.0146794212270  6  2  5  5
      0.0157286749623  6  2  6  1
      0.0356017411366  6  2  6  2
      -0.417606341174  6  3  1  1
      0.0126111505779  6  3  2  1
      -0.151583166642  6  3  2  2
    -0.00530022120205  6  3  3  1
     -0.0453169789966  6  3  3  2
      -0.166854180166  6  3  3  3
    -0.00642314670729  6  3  4  1
      0.0399776550595  6  3  4  2
     -0.0258039034607  6  3  4  3
     -0.0219193217543  6  3  4  4
     0.00706301706498  6  3  5  1
     -0.0242042184849  6  3  5  2
      0.0324739010780  6  3  5  3
      0.0289600068958  6  3  5  4
     -0.0497557092745  6  3  5  5
     0.00795699812688  6  3  6  1
     0.00938162949562  6  3  6  2
       0.119828418333  6  3  6  3
      -0.103681813385  6  4  1  1
     0.00155627814787  6  4  2  1
     -0.0545542509870  6  4  2  2
     0.00680730610335  6  4  3  1
      0.0302830536087  6  4  3  2
     -0.0354874956646  6  4  3  3
     0.00125426222563  6  4  4  1
      0.0163384091604  6  4  4  2
   -0.000717550602868  6  4  4  3
     -0.0267681355692  6  4  4  4
    -0.00219535712250  6  4  5  1
     -0.0147880853189  6  4  5  2
      0.0111311813450  6  4  5  3
      0.0117527850812  6  4  5  4
     -0.0393546943888  6  4  5  5
    -0.00692164689456  6  4  6  1
     0.00170467085942  6  4  6  2
      0.0154075759246  6  4  6  3
      0.0266708549962  6  4  6  4
       0.120988295266  6  5  1  1
    -0.00380626489711  6  5  2  1
      0.0257757033054  6  5  2  2
    -0.00353074387501  6  5  3  1
     0.00742506246784  6  5  3  2
      0.0337330948954  6  5  3  3
    0.000517151213148  6  5  4  1
     -0.0143342826881  6  5  4  2
      0.0119574406123  6  5  4  3
    0.000819546968654  6  5  4  4
    4.34332116139E-05  6  5  5  1
      0.0192253243791  6  5  5  2
     -0.0160154936953  6  5  5  3
    -0.00574006707561  6  5  5  4
     -0.0104636560359  6  5  5  5
     0.00317336505077  6  5  6  1
     0.00204197493878  6  5  6  2
     -0.0268372528870  6  5  6  3
    -0.00583497640366  6  5  6  4
      0.0206191313421  6  5  6  5
       0.855316268370  6  6  1  1
     -0.0137525448056  6  6  2  1
       0.578215270791  6  6  2  2
     0.00181689638519  6  6  3  1
      0.0279516075168  6  6  3  2
       0.593274109973  6  6  3  3
     0.00591580702798  6  6  4  1
     -0.0585412215530  6  6  4  2
      0.0424343534733  6  6  4  3
       0.329883473566  6  6  4  4
    -0.00614107694347  6  6  5  1
      0.0345526666520  6  6  5  2
     -0.0427144874163  6  6  5  3
     -0.0699103249232  6  6  5  4
       0.418573513105  6  6  5  5
    -0.00448947337819  6  6  6  1
     -0.0127651374985  6  6  6  2
      -0.109905338072  6  6  6  3
     -0.0335977384105  6  6  6  4
      0.0221294950073  6  6  6  5
       0.528739693588  6  6  6  6
       0.184639525291  7  1  1  1
     -0.0266238017158  7  1  2  1
     0.00778359734178  7  1  2  2
     -0.0136038050435  7  1  3  1
    -0.00320791039777  7  1  3  2
     0.00262003714279  7  1  3  3
     0.00782813341061  7  1  4  1
    -0.00386681507701  7  1  4  2
     0.00148411996184  7  1  4  3
     0.00229815242259  7  1  4  4
    -0.00559660781202  7  1  5  1
     0.00401679289162  7  1  5  2
    -0.00206516875014  7  1  5  3
    -0.00235635116310  7  1  5  4
     0.00316363063696  7  1  5  5
      0.0111039790896  7  1  6  1
     0.00212636880715  7  1  6  2
    -0.00335770056855  7  1  6  3
    -0.00229183404190  7  1  6  4
     0.00241423038602  7  1  6  5
     0.00471783996054  7  1  6  6
      0.0130230246524  7  1  7  1
      -0.174089404712  7  2  1  1
     0.00690368408435  7  2  2  1
     -0.0566122660107  7  2  2  2
   -9.26395210547E-05  7  2  3  1
     -0.0227296319640  7  2  3  2
     -0.0349543992708  7  2  3  3
    -0.00287314084021  7  2  4  1
      0.0157385119923  7  2  4  2
    -0.00573653664200  7  2  4  3
    -0.00623274040452  7  2  4  4
     0.00293920692709  7  2  5  1
    -0.00583093739484  7  2  5  2
     0.00751491527485  7  2  5  3
     0.00988281554684  7  2  5  4
     -0.0152171906459  7  2  5  5
     0.00102192677753  7  2  6  1
    -0.00523999876870  7  2  6  2
      0.0439507397588  7  2  6  3
    0.000433581979124  7  2  6  4
    -0.00357063076896  7  2  6  5
     -0.0261013254521  7  2  6  6
    -0.00175612950516  7  2  7  1
      0.0400086455363  7  2  7  2
      -0.114585791944  7  3  1  1
     0.00385516306186  7  3  2  1
     -0.0606717331795  7  3  2  2
     0.00217050192704  7  3  3  1
      0.0440346660500  7  3  3  2
     -0.0285607734189  7  3  3  3
    -0.00102266289930  7  3  4  1
      0.0160288692932  7  3  4  2
     0.00532275420876  7  3  4  3
     -0.0278474711164  7  3  4  4
    0.000767726487693  7  3  5  1
    -0.00745917891372  7  3  5  2
     0.00415407731699  7  3  5  3
      0.0166667687542  7  3  5  4
     -0.0555002123216  7  3  5  5
    -0.00123849715102  7  3  6  1
      0.0122308994223  7  3  6  2
      0.0172760953490  7  3  6  3
      0.0277270280635  7  3  6  4
    -0.00100903706890  7  3  6  5
     -0.0314875121419  7  3  6  6
    -0.00168885607600  7  3  7  1
    0.000786697664182  7  3  7  2
      0.0568327596276  7  3  7  3
      0.0712315947685  7  4  1  1
    -0.00184646965787  7  4  2  1
      0.0387815517505  7  4  2  2
   -0.000126132583506  7  4  3  1
      0.0108584799265  7  4  3  2
      0.0444283311677  7  4  3  3
    0.000719299298839  7  4  4  1
    -0.00678250325333  7  4  4  2
     0.00627419430112  7  4  4  3
     0.00544786185546  7  4  4  4
   -0.000687471035504  7  4  5  1
     0.00543916035818  7  4  5  2
    -0.00329466779667  7  4  5  3
    -0.00535580164253  7  4  5  4
      0.0112675604836  7  4  5  5
   -4.97312703845E-05  7  4  6  1
    -0.00167153168938  7  4  6  2
    -0.00633695690821  7  4  6  3
    -0.00199316626510  7  4  6  4
     0.00722863452531  7  4  6  5
      0.0363874282241  7  4  6  6
    0.000567041765920  7  4  7  1
     0.00106172707985  7  4  7  2
     0.00174812711737  7  4  7  3
      0.0142459653715  7  4  7  4
     0.00131701430427  7  5  1  1
    0.000922053454766  7  5  2  1
      0.0110301723054  7  5  2  2
     0.00171739141046  7  5  3  1
     0.00907848768326  7  5  3  2
      0.0105611417065  7  5  3  3
    6.84919686904E-05  7  5  4  1
   -2.50281803912E-05  7  5  4  2
     0.00558855346243  7  5  4  3
   -0.000452518662309  7  5  4  4
   -0.000380356768106  7  5  5  1
    -0.00297730727250  7  5  5  2
    -0.00293121824363  7  5  5  3
    -0.00405837986085  7  5  5  4
     0.00505978423909  7  5  5  5
    -0.00170051749242  7  5  6  1
     0.00719008395872  7  5  6  2
    -0.00617000413221  7  5  6  3
      0.0103056363923  7  5  6  4
    -0.00707261025236  7  5  6  5
     0.00970064565268  7  5  6  6
   -0.000688676730930  7  5  7  1
     -0.0116244356018  7  5  7  2
      0.0119384962280  7  5  7  3
    -0.00696196791876  7  5  7  4
      0.0236751375389  7  5  7  5
      0.0781286619073  7  6  1  1
    -0.00484959398321  7  6  2  1
    -0.00709689574472  7  6  2  2
     0.00771396768743  7  6  3  1
      0.0620955898132  7  6  3  2
      0.0360885129450  7  6  3  3
     0.00401860170871  7  6  4  1
   -0.000631086314587  7  6  4  2
      0.0164544774477  7  6  4  3
     -0.0252867316738  7  6  4  4
    -0.00496812078495  7  6  5  1
     0.00915057800303  7  6  5  2
     -0.0117721728548  7  6  5  3
      0.0118385815265  7  6  5  4
     -0.0538235032512  7  6  5  5
    -0.00892452673916  7  6  6  1
    -0.00158237755812  7  6  6  2
     -0.0238426643929  7  6  6  3
      0.0224590571985  7  6  6  4
      0.0139615033496  7  6  6  5
      0.0173333131989  7  6  6  6
   -3.68211469332E-05  7  6  7  1
    -0.00814104659566  7  6  7  2
      0.0407083248866  7  6  7  3
      0.0100374774123  7  6  7  4
     0.00560219757638  7  6  7  5
      0.0615757970997  7  6  7  6
       0.591533337255  7  7  1  1
    -0.00363725041664  7  7  2  1
       0.516856477796  7  7  2  2
   -0.000522511150835  7  7  3  1
   -0.000417673507381  7  7  3  2
       0.510050285019  7  7  3  3
     0.00130283895924  7  7  4  1
     -0.0346418744147  7  7  4  2
      0.0228990976671  7  7  4  3
       0.327572661501  7  7  4  4
    -0.00136852604476  7  7  5  1
     0.00159133573646  7  7  5  2
    -0.00743460813701  7  7  5  3
     -0.0690170424152  7  7  5  4
       0.435491769575  7  7  5  5
   -4.11674792959E-05  7  7  6  1
    -0.00110297666414  7  7  6  2
     -0.0452353829230  7  7  6  3
     -0.0222577816472  7  7  6  4
     0.00119461162251  7  7  6  5
       0.461064533792  7  7  6  6
     0.00124947336366  7  7  7  1
    -0.00643832310375  7  7  7  2
     -0.0269865451451  7  7  7  3
      0.0305870933203  7  7  7  4
     0.00733002746485  7  7  7  5
     -0.0123534604351  7  7  7  6
       0.465973703556  7  7  7  7
       0.308326504219  8  1  1  1
     -0.0450249664137  8  1  2  1
      0.0109417117689  8  1  2  2
     -0.0161097006558  8  1  3  1
    0.000470536822833  8  1  3  2
     0.00473275456468  8  1  3  3
      0.0151115134659  8  1  4  1
    -0.00453468916467  8  1  4  2
    0.000872436633591  8  1  4  3
     0.00232564169531  8  1  4  4
     -0.0123949030591  8  1  5  1
     0.00434991417282  8  1  5  2
    -0.00174306312451  8  1  5  3
    -0.00239416182009  8  1  5  4
     0.00287988730745  8  1  5  5
      0.0106907632453  8  1  6  1
    0.000183757490791  8  1  6  2
    -0.00606658816875  8  1  6  3
    -0.00192971667703  8  1  6  4
     0.00266928906954  8  1  6  5
     0.00745705337546  8  1  6  6
      0.0200601542676  8  1  7  1
    -0.00433030712924  8  1  7  2
    -0.00263880172311  8  1  7  3
     0.00118675347490  8  1  7  4
   -0.000955198967833  8  1  7  5
     0.00160409999709  8  1  7  6
     0.00212707380199  8  1  7  7
      0.0329049816239  8  1  8  1
      -0.287944610944  8  2  1  1
      0.0110819418456  8  2  2  1
     -0.0984590827262  8  2  2  2
     0.00447741550401  8  2  3  1
    -0.00266559350977  8  2  3  2
     -0.0982671524706  8  2  3  3
    -0.00336628514734  8  2  4  1
      0.0309762549400  8  2  4  2
     -0.0172668536536  8  2  4  3
     -0.0193471396414  8  2  4  4
     0.00276897977535  8  2  5  1
     -0.0180947428602  8  2  5  2
      0.0208401258037  8  2  5  3
      0.0218575220833  8  2  5  4
     -0.0399757451121  8  2  5  5
    -0.00304338493471  8  2  6  1
    -0.00279586808729  8  2  6  2
      0.0622580591674  8  2  6  3
      0.0179212769826  8  2  6  4
     -0.0217466703874  8  2  6  5
     -0.0697437321704  8  2  6  6
    -0.00479873382299  8  2  7  1
      0.0177422860890  8  2  7  2
      0.0205068561030  8  2  7  3
    -0.00945515352882  8  2  7  4
     0.00616444219506  8  2  7  5
    -0.00655548538241  8  2  7  6
     -0.0390537576817  8  2  7  7
    -0.00698346680490  8  2  8  1
      0.0593085400166  8  2  8  2
      -0.118954599174  8  3  1  1
     0.00665908307605  8  3  2  1
     -0.0229474327665  8  3  2  2
     -0.0141940540932  8  3  3  1
     -0.0479517349846  8  3  3  2
     -0.0605143770164  8  3  3  3
    -0.00656111685939  8  3  4  1
   -0.000812064455068  8  3  4  2
   -0.000769988643711  8  3  4  3
     0.00255628836874  8  3  4  4
     0.00849422438982  8  3  5  1
     0.00129700106740  8  3  5  2
     0.00978673246902  8  3  5  3
    -0.00328102930764  8  3  5  4
     0.00981250683944  8  3  5  5
      0.0164683076604  8  3  6  1
      0.0274341700607  8  3  6  2
      0.0396420902265  8  3  6  3
    -0.00245891863641  8  3  6  4
    -0.00364659739345  8  3  6  5
     -0.0395931144675  8  3  6  6
     0.00112869884279  8  3  7  1
      0.0142856402838  8  3  7  2
     0.00121790015189  8  3  7  3
    -0.00213353767884  8  3  7  4
    -0.00440431688376  8  3  7  5
     -0.0179736848495  8  3  7  6
    -0.00878435470339  8  3  7  7
    -0.00135565968036  8  3  8  1
      0.0134256641830  8  3  8  2
      0.0404154482436  8  3  8  3
       0.132935492944  8  4  1  1
    -0.00311403646196  8  4  2  1
      0.0731456277266  8  4  2  2
    -0.00518140521190  8  4  3  1
    -0.00331304267670  8  4  3  2
      0.0595391371071  8  4  3  3
   -0.000132261202407  8  4  4  1
     -0.0176105421632  8  4  4  2
      0.0132418416411  8  4  4  3
      0.0166637916065  8  4  4  4
    0.000846663019179  8  4  5  1
      0.0134200056452  8  4  5  2
     -0.0118700526709  8  4  5  3
     -0.0151213342493  8  4  5  4
      0.0339817195485  8  4  5  5
     0.00514362190260  8  4  6  1
     0.00870438084416  8  4  6  2
     -0.0219918469933  8  4  6  3
    -0.00555708403007  8  4  6  4
     0.00468963974283  8  4  6  5
      0.0491281862688  8  4  6  6
     0.00225642269623  8  4  7  1
     -0.0112272123092  8  4  7  2
    -0.00255468610267  8  4  7  3
     0.00363902834270  8  4  7  4
     0.00715331458160  8  4  7  5
     0.00349158966396  8  4  7  6
      0.0364162025716  8  4  7  7
     0.00271142037986  8  4  8  1
     -0.0137309261680  8  4  8  2
   -0.000238144071891  8  4  8  3
      0.0166840496737  8  4  8  4
     -0.0399348810954  8  5  1  1
     0.00226500509063  8  5  2  1
     0.00375407108366  8  5  2  2
     0.00592984256415  8  5  3  1
     0.00242988210634  8  5  3  2
      0.0122334378359  8  5  3  3
    0.000664561349096  8  5  4  1
     0.00648611546356  8  5  4  2
    -0.00599620589445  8  5  4  3
     0.00295252939157  8  5  4  4
    -0.00151905208761  8  5  5  1
    -0.00797538168072  8  5  5  2
     0.00861334311126  8  5  5  3
     0.00241142432663  8  5  5  4
      0.0131979998864  8  5  5  5
    -0.00615243482822  8  5  6  1
     -0.0136956165958  8  5  6  2
     0.00829310353459  8  5  6  3
    -0.00174010990981  8  5  6  4
    -0.00533406040802  8  5  6  5
     0.00957471089694  8  5  6  6
    -0.00219145317662  8  5  7  1
      0.0111336570944  8  5  7  2
    -0.00697722073841  8  5  7  3
     0.00533807650462  8  5  7  4
     -0.0107833502593  8  5  7  5
    -0.00269711429797  8  5  7  6
      0.0132964745391  8  5  7  7
    -0.00234918364891  8  5  8  1
     0.00832261606402  8  5  8  2
    -0.00376494530538  8  5  8  3
    -0.00479627539767  8  5  8  4
      0.0182745321174  8  5  8  5
      0.0839874607916  8  6  1  1
    -0.00546280722695  8  6  2  1
     0.00986228774661  8  6  2  2
      0.0153265722960  8  6  3  1
      0.0606192106708  8  6  3  2
      0.0549915905007  8  6  3  3
     0.00638453726982  8  6  4  1
     0.00876342432934  8  6  4  2
    0.000842415208386  8  6  4  3
    -0.00573660374852  8  6  4  4
    -0.00850361743551  8  6  5  1
     -0.0161323097734  8  6  5  2
     0.00198423655591  8  6  5  3
    0.000567867701111  8  6  5  4
    -0.00597984681639  8  6  5  5
     -0.0173833655247  8  6  6  1
     -0.0157372158460  8  6  6  2
     -0.0350566370196  8  6  6  3
      0.0136832553852  8  6  6  4
     0.00525135422027  8  6  6  5
      0.0296143493812  8  6  6  6
    -0.00177831355895  8  6  7  1
     -0.0129732737443  8  6  7  2
      0.0111293651158  8  6  7  3
     0.00476464695869  8  6  7  4
     0.00646495383660  8  6  7  5
      0.0241547330408  8  6  7  6
      0.0194569524334  8  6  7  7
    0.000461817193801  8  6  8  1
     -0.0128218424143  8  6  8  2
     -0.0271651206848  8  6  8  3
    -0.00166539377766  8  6  8  4
    -0.00153238579995  8  6  8  5
      0.0443861940020  8  6  8  6
       0.131378409499  8  7  1  1
    -0.00579948762611  8  7  2  1
      0.0305143412959  8  7  2  2
     0.00214175477259  8  7  3  1
      0.0295806919530  8  7  3  2
      0.0422468836017  8  7  3  3
     0.00294025941896  8  7  4  1
     -0.0125944900492  8  7  4  2
      0.0113490730007  8  7  4  3
    -0.00578731888463  8  7  4  4
    -0.00319807568316  8  7  5  1
      0.0189514999083  8  7  5  2
     -0.0174703702726  8  7  5  3
     0.00405547070842  8  7  5  4
     -0.0254044796436  8  7  5  5
    -0.00314374861011  8  7  6  1
    -0.00596730007458  8  7  6  2
     -0.0282542150989  8  7  6  3
     0.00118471722228  8  7  6  4
      0.0113006002254  8  7  6  5
      0.0263914095074  8  7  6  6
     0.00131824690681  8  7  7  1
     -0.0119623676206  8  7  7  2
     0.00826036266142  8  7  7  3
     0.00652971330702  8  7  7  4
     0.00136307627550  8  7  7  5
      0.0255262471498  8  7  7  6
    -0.00285648783894  8  7  7  7
     0.00315672554012  8  7  8  1
     -0.0139422671425  8  7  8  2
     -0.0144106857494  8  7  8  3
     0.00640544556222  8  7  8  4
    -0.00197391829652  8  7  8  5
     0.00932304438969  8  7  8  6
      0.0239635111379  8  7  8  7
       0.763373053292  8  8  1  1
    -0.00888109085688  8  8  2  1
       0.583708836820  8  8  2  2
    -0.00205118313878  8  8  3  1
     0.00899840376170  8  8  3  2
       0.552379258422  8  8  3  3
     0.00298764754135  8  8  4  1
     -0.0604384211258  8  8  4  2
      0.0348714451895  8  8  4  3
       0.333130281131  8  8  4  4
    -0.00270019011056  8  8  5  1
      0.0353645301113  8  8  5  2
     -0.0319331644721  8  8  5  3
     -0.0715413336905  8  8  5  4
       0.431989738031  8  8  5  5
    0.000615392882155  8  8  6  1
    -0.00816241933243  8  8  6  2
     -0.0976207065699  8  8  6  3
     -0.0342881227281  8  8  6  4
     0.00935512368637  8  8  6  5
       0.486922333391  8  8  6  6
     0.00336710763014  8  8  7  1
     -0.0345354495483  8  8  7  2
     -0.0368760669516  8  8  7  3
      0.0267849123805  8  8  7  4
     0.00950738296994  8  8  7  5
    -0.00245202604790  8  8  7  6
       0.442138536534  8  8  7  7
     0.00557671895034  8  8  8  1
     -0.0412448605343  8  8  8  2
     -0.0240800793275  8  8  8  3
      0.0508131202694  8  8  8  4
      0.0176107344490  8  8  8  5
     0.00887138495665  8  8  8  6
      0.0201546528801  8  8  8  7
       0.516394414047  8  8  8  8
       0.204975349116  9  1  1  1
     -0.0334860103774  9  1  2  1
     0.00106851663343  9  1  2  2
     0.00983270202657  9  1  3  1
      0.0184649495570  9  1  3  2
      0.0132243248436  9  1  3  3
      0.0172732864226  9  1  4  1
     0.00299527598267  9  1  4  2
    -0.00228449922463  9  1  4  3
    -0.00267705424954  9  1  4  4
     -0.0185305937787  9  1  5  1
    -0.00469362651762  9  1  5  2
     0.00115114197355  9  1  5  3
     0.00259415873042  9  1  5  4
    -0.00483736516047  9  1  5  5
     -0.0176216237597  9  1  6  1
     -0.0107396334850  9  1  6  2
     -0.0110090274562  9  1  6  3
     0.00319324787553  9  1  6  4
   -1.83560811297E-05  9  1  6  5
     0.00981824004505  9  1  6  6
     0.00893042194267  9  1  7  1
    -0.00435066039372  9  1  7  2
    -0.00151840240529  9  1  7  3
    0.000971816077184  9  1  7  4
    0.000686159075751  9  1  7  5
     0.00742711099056  9  1  7  6
     0.00228311102734  9  1  7  7
      0.0200802670151  9  1  8  1
    -0.00458644493594  9  1  8  2
     -0.0130573872328  9  1  8  3
    -0.00121049066549  9  1  8  4
     0.00232167448797  9  1  8  5
      0.0130087710360  9  1  8  6
     0.00484551228959  9  1  8  7
     0.00433970486930  9  1  8  8
      0.0310743076442  9  1  9  1
      -0.180576875242  9  2  1  1
     0.00782458629304  9  2  2  1
     -0.0345351484954  9  2  2  2
     0.00921897309194  9  2  3  1
     -0.0108130097478  9  2  3  2
     -0.0281898969708  9  2  3  3
   -0.000651300246163  9  2  4  1
      0.0201937569940  9  2  4  2
     -0.0112016320084  9  2  4  3
    -0.00697628551623  9  2  4  4
    -0.00109721037572  9  2  5  1
     -0.0336527993728  9  2  5  2
      0.0185917412250  9  2  5  3
     0.00998262301249  9  2  5  4
     0.00412844021190  9  2  5  5
    -0.00880927861770  9  2  6  1
    -0.00205565793808  9  2  6  2
      0.0301789119101  9  2  6  3
     0.00762248518234  9  2  6  4
     -0.0204835336318  9  2  6  5
     -0.0203946050705  9  2  6  6
    -0.00492519215189  9  2  7  1
      0.0137347808624  9  2  7  2
    -0.00431154383686  9  2  7  3
    -0.00531479658321  9  2  7  4
     0.00531531616824  9  2  7  5
     -0.0164754438172  9  2  7  6
     0.00638107313784  9  2  7  7
    -0.00680951406922  9  2  8  1
      0.0147494662976  9  2  8  2
     0.00205575381068  9  2  8  3
    -0.00768914331376  9  2  8  4
     0.00847295903101  9  2  8  5
     0.00234509101992  9  2  8  6
     -0.0161021510216  9  2  8  7
     -0.0224999761964  9  2  8  8
     0.00227692453179  9  2  9  1
      0.0514505541084  9  2  9  2
       0.116604921869  9  3  1  1
    -0.00439832113297  9  3  2  1
      0.0115988423077  9  3  2  2
    -0.00311323315589  9  3  3  1
      0.0143798835618  9  3  3  2
      0.0216877324308  9  3  3  3
    0.000858242488782  9  3  4  1
    -0.00730688424795  9  3  4  2
     0.00707728772003  9  3  4  3
     0.00415445534929  9  3  4  4
   -0.000406832766492  9  3  5  1
     0.00959535480700  9  3  5  2
     -0.0120952821879  9  3  5  3
    -0.00767127144556  9  3  5  4
    0.000189189514145  9  3  5  5
     0.00272190765631  9  3  6  1
     0.00469914611084  9  3  6  2
     -0.0284685114948  9  3  6  3
    -0.00368166754911  9  3  6  4
      0.0157932679927  9  3  6  5
      0.0167351164433  9  3  6  6
     0.00256002343830  9  3  7  1
     -0.0132001387980  9  3  7  2
     0.00573474139938  9  3  7  3
     0.00156610631947  9  3  7  4
    0.000913682829738  9  3  7  5
      0.0121803659298  9  3  7  6
    -0.00421121575253  9  3  7  7
     0.00291887714382  9  3  8  1
     -0.0162787078253  9  3  8  2
    -0.00843128121418  9  3  8  3
     0.00407939764265  9  3  8  4
    -0.00990537624947  9  3  8  5
     0.00964957907511  9  3  8  6
     0.00746460397854  9  3  8  7
     0.00528486924610  9  3  8  8
    0.000644598288557  9  3  9  1
     -0.0218078634972  9  3  9  2
      0.0265383958449  9  3  9  3
       0.146355206848  9  4  1  1
    -0.00452092932514  9  4  2  1
      0.0525752292885  9  4  2  2
    -0.00575973224319  9  4  3  1
     0.00372232204712  9  4  3  2
      0.0438886053160  9  4  3  3
    0.000227928219837  9  4  4  1
     -0.0214220202988  9  4  4  2
      0.0160875765423  9  4  4  3
   -0.000283350938809  9  4  4  4
    0.000730954954284  9  4  5  1
      0.0249933963487  9  4  5  2
     -0.0210659212899  9  4  5  3
    -0.00267131034615  9  4  5  4
    -0.00554923374807  9  4  5  5
     0.00553057425170  9  4  6  1
     0.00520517925862  9  4  6  2
     -0.0276349387119  9  4  6  3
    -0.00562282632955  9  4  6  4
     0.00964785309501  9  4  6  5
      0.0339822473654  9  4  6  6
     0.00300036207989  9  4  7  1
     -0.0115575058369  9  4  7  2
   -0.000706909659459  9  4  7  3
     0.00493598435397  9  4  7  4
     0.00125717677900  9  4  7  5
      0.0118813795531  9  4  7  6
     0.00759483073375  9  4  7  7
     0.00382643275276  9  4  8  1
     -0.0157482780043  9  4  8  2
    -0.00404467595262  9  4  8  3
      0.0120264570959  9  4  8  4
    -0.00499768867661  9  4  8  5
    -0.00225545117301  9  4  8  6
      0.0135377904506  9  4  8  7
      0.0304329317089  9  4  8  8
    -0.00122813869325  9  4  9  1
     -0.0170121556769  9  4  9  2
     0.00561703060435  9  4  9  3
      0.0250394186193  9  4  9  4
      -0.248469196455  9  5  1  1
     0.00503304973343  9  5  2  1
      -0.129229096704  9  5  2  2
     0.00736418248972  9  5  3  1
    -0.00189601834772  9  5  3  2
      -0.104784424144  9  5  3  3
    3.26193118109E-05  9  5  4  1
      0.0381109622288  9  5  4  2
     -0.0275348385330  9  5  4  3
     -0.0127893831344  9  5  4  4
    -0.00115732194381  9  5  5  1
     -0.0293825890890  9  5  5  2
      0.0269208917133  9  5  5  3
      0.0149189374225  9  5  5  4
     -0.0288874160435  9  5  5  5
    -0.00715976755995  9  5  6  1
     -0.0137117654576  9  5  6  2
      0.0520685397876  9  5  6  3
     0.00937698358797  9  5  6  4
    -0.00952329537950  9  5  6  5
     -0.0797466160137  9  5  6  6
    -0.00348486768191  9  5  7  1
      0.0233796108303  9  5  7  2
     0.00568496995807  9  5  7  3
     -0.0106647259451  9  5  7  4
    -0.00550396405975  9  5  7  5
     -0.0135269529272  9  5  7  6
     -0.0461359549613  9  5  7  7
    -0.00437155813784  9  5  8  1
      0.0297946865540  9  5  8  2
     0.00384312475242  9  5  8  3
     -0.0228008665972  9  5  8  4
     0.00338043926656  9  5  8  5
    0.000522079182181  9  5  8  6
     -0.0173170996485  9  5  8  7
     -0.0807589133814  9  5  8  8
     0.00180959445396  9  5  9  1
      0.0117133568228  9  5  9  2
    -0.00111459124396  9  5  9  3
     -0.0370195036833  9  5  9  4
      0.0741614561893  9  5  9  5
      -0.181174205491  9  6  1  1
     0.00632789147652  9  6  2  1
     -0.0519100115904  9  6  2  2
     0.00668783221477  9  6  3  1
     0.00801399089998  9  6  3  2
     -0.0548918993821  9  6  3  3
   -0.000677866950837  9  6  4  1
      0.0209189322945  9  6  4  2
     -0.0144509911852  9  6  4  3
     -0.0114371117215  9  6  4  4
   -0.000337006961005  9  6  5  1
     -0.0277740040187  9  6  5  2
      0.0252259762943  9  6  5  3
     0.00854631161093  9  6  5  4
    -0.00717435403608  9  6  5  5
    -0.00606689855480  9  6  6  1
     0.00153387611544  9  6  6  2
      0.0292322555085  9  6  6  3