  &FCI NORB=  9,NELEC=  9,MS2=  9,
  ORBSYM= 1, 1, 1, 1, 1, 1, 1, 1, 1,
  ISYM=0
 &END
    0.41602826537        1    1    1    1
    0.20754936179E-01    2    1    1    1
    0.91174751508E-01    2    1    2    1
    0.39133567846        2    2    1    1
   -0.22483148551E-01    2    2    2    1
    0.41734873694        2    2    2    2
   -0.26545499268E-03    3    1    1    1
   -0.97210887931E-03    3    1    2    1
    0.34414690802E-03    3    1    2    2
    0.12731786611E-01    3    1    3    1
    0.21191771627E-03    3    2    1    1
    0.92310228537E-03    3    2    2    1
   -0.27028052956E-03    3    2    2    2
    0.45020819855E-02    3    2    3    1
    0.13166400149E-01    3    2    3    2
    0.42007280461        3    3    1    1
    0.96636418015E-01    3    3    2    1
    0.37098428283        3    3    2    2
   -0.13528272561E-02    3    3    3    1
    0.19377415580E-02    3    3    3    2
    0.56336741902        3    3    3    3
   -0.73576336101E-04    4    1    1    1
   -0.34405525398E-03    4    1    2    1
    0.40149015933E-04    4    1    2    2
    0.85923714972E-04    4    1    3    1
    0.15665906002E-02    4    1    3    2
   -0.26723935960E-03    4    1    3    3
    0.11195271254E-01    4    1    4    1
    0.12252888243E-03    4    2    1    1
   -0.35817430810E-03    4    2    2    1
   -0.18838518742E-03    4    2    2    2
    0.39068729901E-04    4    2    3    1
    0.13193725407E-01    4    2    3    2
    0.24170855147E-02    4    2    3    3
   -0.82391141193E-04    4    2    4    1
    0.75048629169E-01    4    2    4    2
    0.32231220329E-02    4    3    1    1
    0.12331781937E-01    4    3    2    1
   -0.20134256255E-02    4    3    2    2
   -0.18915796362E-03    4    3    3    1
    0.51886572835E-03    4    3    3    2
    0.17487411915E-01    4    3    3    3
    0.56166522360E-04    4    3    4    1
    0.10099618968E-02    4    3    4    2
    0.93273500241E-02    4    3    4    3
    0.37211612972        4    4    1    1
   -0.74539677937E-01    4    4    2    1
    0.41745977430        4    4    2    2
    0.93001348941E-03    4    4    3    1
   -0.74496699026E-03    4    4    3    2
    0.30385050397        4    4    3    3
    0.35827255844E-03    4    4    4    1
    0.15119768013E-03    4    4    4    2
   -0.13741683508E-01    4    4    4    3
    0.49979058581        4    4    4    4
   -0.52527338682E-03    5    1    1    1
    0.20132105016E-04    5    1    2    1
    0.49735336114E-03    5    1    2    2
    0.11872214416E-02    5    1    3    1
   -0.22988422159E-01    5    1    3    2
   -0.51226096352E-02    5    1    3    3
   -0.75252351715E-02    5    1    4    1
   -0.11048848746        5    1    4    2
   -0.18789084316E-02    5    1    4    3
    0.34159945493E-03    5    1    4    4
    0.22173448193        5    1    5    1
   -0.15932160091E-03    5    2    1    1
    0.54765623915E-03    5    2    2    1
    0.16163777888E-03    5    2    2    2
   -0.55023440652E-03    5    2    3    1
   -0.14806400412E-01    5    2    3    2
   -0.24610670719E-02    5    2    3    3
   -0.13005489842E-01    5    2    4    1
   -0.67980954748E-01    5    2    4    2
   -0.10780013536E-02    5    2    4    3
   -0.24446066765E-03    5    2    4    4
    0.13005103327        5    2    5    1
    0.86880730325E-01    5    2    5    2
    0.17616747345E-02    5    3    1    1
    0.41366031239E-02    5    3    2    1
   -0.29224656749E-02    5    3    2    2
   -0.36415169018E-03    5    3    3    1
    0.35844986244E-04    5    3    3    2
    0.76124386514E-02    5    3    3    3
   -0.73123928797E-04    5    3    4    1
    0.37636627633E-03    5    3    4    2
   -0.23749707538E-02    5    3    4    3
   -0.58956868595E-02    5    3    4    4
   -0.10134669232E-02    5    3    5    1
   -0.49201279406E-03    5    3    5    2
    0.17427798978E-01    5    3    5    3
   -0.14630938226E-01    5    4    1    1
   -0.58349982196E-01    5    4    2    1
    0.57356986986E-02    5    4    2    2
    0.52417763547E-03    5    4    3    1
   -0.62124105302E-03    5    4    3    2
   -0.66998527278E-01    5    4    3    3
    0.26337403860E-03    5    4    4    1
    0.29413160833E-03    5    4    4    2
   -0.91894884894E-02    5    4    4    3
    0.56288626101E-01    5    4    4    4
   -0.15410920243E-03    5    4    5    1
   -0.43535588761E-03    5    4    5    2
   -0.30440515347E-02    5    4    5    3
    0.45543269233E-01    5    4    5    4
    0.43662953626        5    5    1    1
    0.92988427641E-01    5    5    2    1
    0.38188523997        5    5    2    2
   -0.10885205013E-02    5    5    3    1
    0.93099419474E-03    5    5    3    2
    0.50414278171        5    5    3    3
   -0.34804501953E-03    5    5    4    1
   -0.21913410467E-03    5    5    4    2
    0.12682182695E-01    5    5    4    3
    0.32296253110        5    5    4    4
   -0.37628319114E-03    5    5    5    1
    0.33065748104E-03    5    5    5    2
    0.61808298835E-02    5    5    5    3
   -0.60875080139E-01    5    5    5    4
    0.51731589636        5    5    5    5
   -0.10441951750E-01    6    1    1    1
   -0.41294789703E-01    6    1    2    1
    0.86275937450E-02    6    1    2    2
    0.52157720036E-03    6    1    3    1
   -0.57935591506E-03    6    1    3    2
   -0.49296705125E-01    6    1    3    3
    0.16702950194E-03    6    1    4    1
   -0.18101363097E-03    6    1    4    2
   -0.59288754028E-02    6    1    4    3
    0.38251081119E-01    6    1    4    4
    0.85521003612E-03    6    1    5    1
    0.25793862227E-03    6    1    5    2
   -0.12683199687E-01    6    1    5    3
    0.27101576271E-01    6    1    5    4
   -0.45896451772E-01    6    1    5    5
    0.32095429004E-01    6    1    6    1
   -0.91263885063E-02    6    2    1    1
   -0.21623050330E-01    6    2    2    1
    0.61440856405E-02    6    2    2    2
    0.17721264111E-03    6    2    3    1
   -0.24708167048E-03    6    2    3    2
   -0.24252295144E-01    6    2    3    3
    0.15155109910E-03    6    2    4    1
    0.15677398050E-03    6    2    4    2
    0.17779185126E-02    6    2    4    3
    0.19440838353E-01    6    2    4    4
   -0.90806592518E-04    6    2    5    1
   -0.24709365552E-03    6    2    5    2
   -0.71892283225E-02    6    2    5    3
    0.16513572115E-01    6    2    5    4
   -0.24966255779E-01    6    2    5    5
    0.97499756770E-02    6    2    6    1
    0.17972738251E-01    6    2    6    2
    0.13461431126E-03    6    3    1    1
   -0.10645641909E-02    6    3    2    1
   -0.22109981403E-03    6    3    2    2
   -0.35877604436E-02    6    3    3    1
    0.20499413976E-01    6    3    3    2
    0.35589662927E-02    6    3    3    3
    0.55573141272E-02    6    3    4    1
    0.96137664513E-01    6    3    4    2
    0.17070920234E-02    6    3    4    3
    0.66979332701E-03    6    3    4    4
   -0.17679633066        6    3    5    1
   -0.10637086565        6    3    5    2
    0.89795713461E-03    6    3    5    3
    0.84721982133E-03    6    3    5    4
   -0.82896914379E-03    6    3    5    5
   -0.17873129670E-03    6    3    6    1
    0.39404331982E-03    6    3    6    2
    0.17629150512        6    3    6    3
    0.29957784471E-03    6    4    1    1
    0.13514055619E-02    6    4    2    1
   -0.32748752094E-03    6    4    2    2
   -0.10861855300E-03    6    4    3    1
    0.38236983064E-02    6    4    3    2
    0.15457367449E-02    6    4    3    3
    0.16687460937E-02    6    4    4    1
   -0.63845832588E-02    6    4    4    2
    0.13086240115E-03    6    4    4    3
   -0.14876540487E-02    6    4    4    4
    0.14969184337E-01    6    4    5    1
    0.10037595087E-01    6    4    5    2
    0.11597541939E-03    6    4    5    3
   -0.10341219855E-02    6    4    5    4
    0.13288153260E-02    6    4    5    5
   -0.67800896809E-03    6    4    6    1
   -0.50750005608E-03    6    4    6    2
   -0.12748830640E-01    6    4    6    3
    0.14251197862E-01    6    4    6    4
    0.38179812360E-03    6    5    1    1
    0.67761867582E-03    6    5    2    1
   -0.30586018070E-03    6    5    2    2
   -0.10322409547E-01    6    5    3    1
   -0.33746417797E-03    6    5    3    2
    0.22059614302E-02    6    5    3    3
    0.36958383855E-02    6    5    4    1
    0.27489618529E-01    6    5    4    2
    0.62311956834E-03    6    5    4    3
   -0.84384927909E-03    6    5    4    4
   -0.52931628341E-01    6    5    5    1
   -0.31883084585E-01    6    5    5    2
    0.24483613423E-03    6    5    5    3
   -0.38396175594E-03    6    5    5    4
    0.88505273359E-03    6    5    5    5
   -0.36895440433E-03    6    5    6    1
   -0.50811101546E-04    6    5    6    2
    0.45331404654E-01    6    5    6    3
   -0.23397886018E-02    6    5    6    4
    0.22647205866E-01    6    5    6    5
    0.38359639367        6    6    1    1
   -0.27094305058E-01    6    6    2    1
    0.39687745189        6    6    2    2
    0.34411756294E-03    6    6    3    1
   -0.64981452828E-03    6    6    3    2
    0.37821002150        6    6    3    3
   -0.57933900600E-04    6    6    4    1
   -0.18546296838E-02    6    6    4    2
   -0.60377029861E-02    6    6    4    3
    0.41946105192        6    6    4    4
    0.34617821736E-02    6    6    5    1
    0.19370963468E-02    6    6    5    2
    0.30655862395E-02    6    6    5    3
    0.18389444244E-01    6    6    5    4
    0.36698163290        6    6    5    5
    0.16300686997E-01    6    6    6    1
    0.86852991773E-02    6    6    6    2
   -0.31578400882E-02    6    6    6    3
   -0.32260637671E-03    6    6    6    4
   -0.12283634082E-02    6    6    6    5
    0.42405464114        6    6    6    6
   -0.23529321702E-01    7    1    1    1
   -0.86371570808E-01    7    1    2    1
    0.32041200772E-01    7    1    2    2
    0.10756658439E-02    7    1    3    1
   -0.11046503385E-02    7    1    3    2
   -0.10679210748        7    1    3    3
    0.38981618765E-03    7    1    4    1
    0.18708368896E-03    7    1    4    2
   -0.13809484789E-01    7    1    4    3
    0.81893917158E-01    7    1    4    4
    0.26806129410E-03    7    1    5    1
   -0.40728429218E-03    7    1    5    2
   -0.53514248048E-02    7    1    5    3
    0.51030218018E-01    7    1    5    4
   -0.92071375257E-01    7    1    5    5
    0.44612042685E-01    7    1    6    1
    0.19637440194E-01    7    1    6    2
    0.93753758103E-03    7    1    6    3
   -0.15005107289E-02    7    1    6    4
   -0.77529881947E-03    7    1    6    5
    0.30885683081E-01    7    1    6    6
    0.10775583067        7    1    7    1
    0.17651593986E-01    7    2    1    1
    0.10952516663        7    2    2    1
   -0.29742949848E-01    7    2    2    2
   -0.13743806699E-02    7    2    3    1
    0.12972098270E-02    7    2    3    2
    0.13158439679        7    2    3    3
   -0.44556079936E-03    7    2    4    1
   -0.33660222045E-03    7    2    4    2
    0.17556119139E-01    7    2    4    3
   -0.94545955632E-01    7    2    4    4
   -0.27853901143E-03    7    2    5    1
    0.53101831722E-03    7    2    5    2
    0.72604108806E-02    7    2    5    3
   -0.73164018996E-01    7    2    5    4
    0.10576158645        7    2    5    5
   -0.52256023082E-01    7    2    6    1
   -0.29582345624E-01    7    2    6    2
   -0.11685165781E-02    7    2    6    3
    0.18311883394E-02    7    2    6    4
    0.10047970179E-02    7    2    6    5
   -0.37232868145E-01    7    2    6    6
   -0.11962577621        7    2    7    1
    0.15905831506        7    2    7    2
   -0.17867549269E-03    7    3    1    1
   -0.11452433638E-02    7    3    2    1
    0.38786226248E-03    7    3    2    2
   -0.53269235627E-02    7    3    3    1
    0.61140474953E-02    7    3    3    2
   -0.15678297383E-02    7    3    3    3
   -0.81936498097E-03    7    3    4    1
   -0.79643663785E-03    7    3    4    2
   -0.80334433512E-04    7    3    4    3
    0.11144688056E-02    7    3    4    4
    0.39648416352E-02    7    3    5    1
    0.33250471130E-02    7    3    5    2
   -0.58702317028E-04    7    3    5    3
    0.74555089550E-03    7    3    5    4
   -0.10856074455E-02    7    3    5    5
    0.59736744574E-03    7    3    6    1
    0.20199599875E-03    7    3    6    2
   -0.49066409081E-02    7    3    6    3
    0.54196926689E-02    7    3    6    4
    0.68193748897E-03    7    3    6    5
    0.40010657905E-03    7    3    6    6
    0.11920283304E-02    7    3    7    1
   -0.14703874342E-02    7    3    7    2
    0.11776804696E-01    7    3    7    3
    0.25006521929E-03    7    4    1    1
   -0.21945993689E-03    7    4    2    1
   -0.22790070555E-03    7    4    2    2
   -0.13939074139E-02    7    4    3    1
    0.13633046083E-01    7    4    3    2
    0.25698266379E-02    7    4    3    3
    0.83430682849E-02    7    4    4    1
    0.57379080875E-01    7    4    4    2
    0.11468693684E-02    7    4    4    3
    0.16658424145E-04    7    4    4    4
   -0.10623292973        7    4    5    1
   -0.68663118594E-01    7    4    5    2
    0.54111256688E-03    7    4    5    3
    0.23039220712E-03    7    4    5    4
    0.14141586696E-04    7    4    5    5
   -0.41280739545E-03    7    4    6    1
    0.20985539921E-03    7    4    6    2
    0.97471473625E-01    7    4    6    3
   -0.70457860900E-02    7    4    6    4
    0.26905728992E-01    7    4    6    5
   -0.18942547304E-02    7    4    6    6
    0.78156139309E-04    7    4    7    1
   -0.12889866187E-03    7    4    7    2
   -0.27123897622E-02    7    4    7    3
    0.76162580840E-01    7    4    7    4
    0.26851793049E-04    7    5    1    1
   -0.38210016778E-03    7    5    2    1
    0.51945322469E-04    7    5    2    2
   -0.28930577069E-03    7    5    3    1
    0.49402592597E-02    7    5    3    2
    0.50313294483E-03    7    5    3    3
   -0.17336304546E-02    7    5    4    1
    0.12863741783E-01    7    5    4    2
    0.37167206499E-03    7    5    4    3
    0.29038201359E-03    7    5    4    4
   -0.43808882236E-01    7    5    5    1
   -0.18179227605E-01    7    5    5    2
    0.10872322765E-03    7    5    5    3
    0.27315124424E-03    7    5    5    4
   -0.33142337365E-03    7    5    5    5
    0.15907049312E-04    7    5    6    1
    0.18987791075E-03    7    5    6    2
    0.33117295710E-01    7    5    6    3
   -0.11366020732E-03    7    5    6    4
    0.89794776156E-02    7    5    6    5
   -0.57719436038E-03    7    5    6    6
    0.34068132317E-03    7    5    7    1
   -0.44717270760E-03    7    5    7    2
   -0.74575197741E-03    7    5    7    3
    0.22042126248E-01    7    5    7    4
    0.19267998337E-01    7    5    7    5
    0.96686422884E-03    7    6    1    1
   -0.14899688938E-01    7    6    2    1
    0.65660568079E-03    7    6    2    2
    0.24289344866E-03    7    6    3    1
   -0.28521992624E-03    7    6    3    2
   -0.17509890015E-01    7    6    3    3
   -0.60849779730E-04    7    6    4    1
   -0.20690292452E-03    7    6    4    2
    0.33634033622E-02    7    6    4    3
    0.12464589695E-01    7    6    4    4
    0.62786982378E-03    7    6    5    1
    0.37910175827E-03    7    6    5    2
    0.92831560838E-03    7    6    5    3
    0.10226126399E-01    7    6    5    4
   -0.13168614555E-01    7    6    5    5
    0.90979564883E-02    7    6    6    1
    0.14885158167E-02    7    6    6    2
   -0.40875455077E-03    7    6    6    3
   -0.31096341430E-03    7    6    6    4
   -0.32403307073E-03    7    6    6    5
    0.55716495296E-02    7    6    6    6
    0.15698441035E-01    7    6    7    1
   -0.19103678630E-01    7    6    7    2
    0.20922442278E-03    7    6    7    3
   -0.36495521095E-03    7    6    7    4
   -0.70594209599E-04    7    6    7    5
    0.14369304660E-01    7    6    7    6
    0.40037718906        7    7    1    1
   -0.19546957803E-01    7    7    2    1
    0.40966213692        7    7    2    2
    0.20843897258E-03    7    7    3    1
   -0.17286915137E-03    7    7    3    2
    0.39127633799        7    7    3    3
    0.41479919569E-04    7    7    4    1
    0.64464338093E-04    7    7    4    2
   -0.13675749867E-02    7    7    4    3
    0.41000067266        7    7    4    4
   -0.69790398734E-04    7    7    5    1
   -0.15364024832E-03    7    7    5    2
   -0.58344310063E-03    7    7    5    3
    0.67692128255E-02    7    7    5    4
    0.39216972158        7    7    5    5
    0.57145364822E-02    7    7    6    1
    0.36689211725E-03    7    7    6    2
    0.14018300676E-03    7    7    6    3
   -0.19483004664E-03    7    7    6    4
   -0.44032651073E-04    7    7    6    5
    0.39652627564        7    7    6    6
    0.87443751021E-02    7    7    7    1
   -0.11179503425E-01    7    7    7    2
    0.99950239993E-04    7    7    7    3
    0.85949850666E-04    7    7    7    4
    0.53617463648E-04    7    7    7    5
    0.15069210520E-02    7    7    7    6
    0.42304443443        7    7    7    7
    0.92164481827E-04    8    1    1    1
   -0.47070418906E-03    8    1    2    1
   -0.53086647366E-04    8    1    2    2
   -0.29939354579E-03    8    1    3    1
    0.94278132040E-02    8    1    3    2
    0.13995509219E-02    8    1    3    3
    0.13300432968E-02    8    1    4    1
    0.34297675952E-01    8    1    4    2
    0.74690986223E-03    8    1    4    3
    0.35289287625E-03    8    1    4    4
   -0.80228446089E-01    8    1    5    1
   -0.42339882400E-01    8    1    5    2
    0.28577024935E-03    8    1    5    3
    0.36939114619E-03    8    1    5    4
   -0.36488430314E-03    8    1    5    5
   -0.86246434392E-04    8    1    6    1
    0.23450572027E-03    8    1    6    2
    0.67107995212E-01    8    1    6    3
   -0.16551828714E-02    8    1    6    4
    0.18399672032E-01    8    1    6    5
   -0.12312739953E-02    8    1    6    6
    0.36709863508E-03    8    1    7    1
   -0.47093154526E-03    8    1    7    2
   -0.22848179178E-02    8    1    7    3
    0.48548020518E-01    8    1    7    4
    0.25734282906E-01    8    1    7    5
   -0.18589634551E-03    8    1    7    6
    0.10057979966E-03    8    1    7    7
    0.42449374823E-01    8    1    8    1
   -0.26749413844E-03    8    2    1    1
    0.21010637342E-04    8    2    2    1
    0.25627069053E-03    8    2    2    2
    0.15101389553E-02    8    2    3    1
   -0.12428412995E-01    8    2    3    2
   -0.25012494307E-02    8    2    3    3
   -0.77190425086E-02    8    2    4    1
   -0.54349888893E-01    8    2    4    2
   -0.10059836634E-02    8    2    4    3
    0.18929999091E-03    8    2    4    4
    0.93518751314E-01    8    2    5    1
    0.63058572840E-01    8    2    5    2
   -0.49745505791E-03    8    2    5    3
   -0.74978969934E-04    8    2    5    4
   -0.20908977310E-03    8    2    5    5
    0.43868042348E-03    8    2    6    1
   -0.93564872507E-04    8    2    6    2
   -0.87497186943E-01    8    2    6    3
    0.87487223183E-02    8    2    6    4
   -0.23604272014E-01    8    2    6    5
    0.17348526114E-02    8    2    6    6
    0.98615191529E-04    8    2    7    1
   -0.97526294258E-04    8    2    7    2
    0.17197173450E-02    8    2    7    3
   -0.67882829473E-01    8    2    7    4
   -0.15529151765E-01    8    2    7    5
    0.37581184051E-03    8    2    7    6
   -0.53438600029E-04    8    2    7    7
   -0.39509020437E-01    8    2    8    1
    0.63096219882E-01    8    2    8    2
    0.27561492759E-02    8    3    1    1
    0.10101097758E-01    8    3    2    1
   -0.31468146661E-02    8    3    2    2
   -0.48389258749E-04    8    3    3    1
    0.12028562906E-03    8    3    3    2
    0.13869556616E-01    8    3    3    3
    0.11242910245E-03    8    3    4    1
    0.43547791305E-03    8    3    4    2
   -0.63641386429E-02    8    3    4    3
   -0.11008642713E-01    8    3    4    4
   -0.10643213053E-02    8    3    5    1
   -0.65788287211E-03    8    3    5    2
   -0.17806301951E-02    8    3    5    3
   -0.73571799990E-02    8    3    5    4
    0.10241509087E-01    8    3    5    5
   -0.11244533173E-02    8    3    6    1
   -0.73965945023E-02    8    3    6    2
    0.96930952107E-03    8    3    6    3
    0.18650933848E-03    8    3    6    4
    0.41169433310E-03    8    3    6    5
   -0.15439437028E-02    8    3    6    6
   -0.10337407469E-01    8    3    7    1
    0.12039757402E-01    8    3    7    2
   -0.38514583925E-03    8    3    7    3
    0.58431115042E-03    8    3    7    4
    0.14677976043E-03    8    3    7    5
   -0.97222959863E-02    8    3    7    6
   -0.10419291699E-03    8    3    7    7
    0.38657487165E-03    8    3    8    1
   -0.56969369527E-03    8    3    8    2
    0.13377634209E-01    8    3    8    3
   -0.31387670560E-01    8    4    1    1
   -0.12125092549        8    4    2    1
    0.25925520376E-01    8    4    2    2
    0.15588532993E-02    8    4    3    1
   -0.14787883465E-02    8    4    3    2
   -0.15687835856        8    4    3    3
    0.57419823681E-03    8    4    4    1
    0.36414142747E-03    8    4    4    2
   -0.21794025444E-01    8    4    4    3
    0.13384983910        8    4    4    4
    0.37431588784E-03    8    4    5    1
   -0.54632953281E-03    8    4    5    2
   -0.91309277160E-02    8    4    5    3
    0.90865714269E-01    8    4    5    4
   -0.12668857268        8    4    5    5
    0.62713701384E-01    8    4    6    1
    0.34682930827E-01    8    4    6    2
    0.13644151010E-02    8    4    6    3
   -0.23486311219E-02    8    4    6    4
   -0.12500160993E-02    8    4    6    5
    0.44908599642E-01    8    4    6    6
    0.13703049623        8    4    7    1
   -0.17501360302        8    4    7    2
    0.16135506520E-02    8    4    7    3
    0.13494620571E-03    8    4    7    4
    0.50284231998E-03    8    4    7    5
    0.22857018674E-01    8    4    7    6
    0.18009740815E-02    8    4    7    7
    0.58738814192E-03    8    4    8    1
    0.17499141727E-03    8    4    8    2
   -0.16270871892E-01    8    4    8    3
    0.22145292748        8    4    8    4
   -0.18383288328E-01    8    5    1    1
   -0.34810581505E-01    8    5    2    1
    0.16035436248E-01    8    5    2    2
    0.42626111049E-03    8    5    3    1
   -0.42580624288E-03    8    5    3    2
   -0.48341007835E-01    8    5    3    3
    0.22227147482E-03    8    5    4    1
    0.40703105248E-03    8    5    4    2
   -0.70250360936E-02    8    5    4    3
    0.45573130432E-01    8    5    4    4
   -0.55351409963E-03    8    5    5    1
   -0.58549509736E-03    8    5    5    2
   -0.22333802689E-02    8    5    5    3
    0.20791492889E-01    8    5    5    4
   -0.43973104358E-01    8    5    5    5
    0.19211892433E-01    8    5    6    1
    0.88093950295E-02    8    5    6    2
    0.99178103860E-03    8    5    6    3
   -0.80097858269E-03    8    5    6    4
   -0.18934598321E-03    8    5    6    5
    0.14051537766E-01    8    5    6    6
    0.51158030747E-01    8    5    7    1
   -0.46743070889E-01    8    5    7    2
    0.46238217569E-03    8    5    7    3
    0.39575693341E-03    8    5    7    4
    0.27067658948E-03    8    5    7    5
    0.43571791872E-02    8    5    7    6
   -0.16752995311E-03    8    5    7    7
    0.42211077468E-03    8    5    8    1
   -0.27214628158E-03    8    5    8    2
   -0.48148145127E-02    8    5    8    3
    0.64270916591E-01    8    5    8    4
    0.31576626755E-01    8    5    8    5
    0.22336695805E-03    8    6    1    1
    0.80500268676E-03    8    6    2    1
   -0.24415421403E-03    8    6    2    2
    0.32297032995E-02    8    6    3    1
   -0.28818655559E-02    8    6    3    2
    0.14814060152E-02    8    6    3    3
    0.34480819655E-02    8    6    4    1
    0.10875136571E-01    8    6    4    2
    0.36076006804E-03    8    6    4    3
   -0.10013939273E-02    8    6    4    4
   -0.13723288999E-01    8    6    5    1
   -0.10681087119E-01    8    6    5    2
    0.19711459246E-03    8    6    5    3
   -0.61875374842E-03    8    6    5    4
    0.81669796808E-03    8    6    5    5
   -0.54607285246E-03    8    6    6    1
   -0.11533434504E-03    8    6    6    2
    0.14820838517E-01    8    6    6    3
    0.16339643919E-02    8    6    6    4
    0.48784362682E-02    8    6    6    5
   -0.63580723612E-03    8    6    6    6
   -0.84096750228E-03    8    6    7    1
    0.10734968023E-02    8    6    7    2
   -0.86267901051E-02    8    6    7    3
    0.10514835948E-01    8    6    7    4
    0.12875310826E-02    8    6    7    5
   -0.37657039408E-04    8    6    7    6
   -0.14166149048E-04    8    6    7    7
    0.65682671750E-02    8    6    8    1
   -0.82556498787E-02    8    6    8    2
    0.18796850707E-03    8    6    8    3
   -0.13440236467E-02    8    6    8    4
   -0.35632701441E-03    8    6    8    5
    0.12497196569E-01    8    6    8    6
   -0.32058494081E-03    8    7    1    1
    0.88786055788E-04    8    7    2    1
    0.33894378777E-03    8    7    2    2
    0.37260211203E-03    8    7    3    1
   -0.18326975363E-01    8    7    3    2
   -0.41237886117E-02    8    7    3    3
    0.38717164199E-02    8    7    4    1
   -0.10017410254        8    7    4    2
   -0.14619708477E-02    8    7    4    3
    0.19621062762E-03    8    7    4    4
    0.16567077074        8    7    5    1
    0.94487932363E-01    8    7    5    2
   -0.70653589132E-03    8    7    5    3
   -0.11935007262E-03    8    7    5    4
   -0.15391752727E-03    8    7    5    5
    0.55657681970E-03    8    7    6    1
   -0.75383649236E-04    8    7    6    2
   -0.14545882991        8    7    6    3
    0.12491511358E-01    8    7    6    4
   -0.39068326436E-01    8    7    6    5
    0.28574419260E-02    8    7    6    6
    0.13021101116E-03    8    7    7    1
   -0.95389928109E-04    8    7    7    2
    0.37405962087E-02    8    7    7    3
   -0.94028273539E-01    8    7    7    4
   -0.32038857177E-01    8    7    7    5
    0.55698467795E-03    8    7    7    6
   -0.93585161413E-04    8    7    7    7
   -0.65610613271E-01    8    7    8    1
    0.85038496783E-01    8    7    8    2
   -0.94365364150E-03    8    7    8    3
    0.16531921312E-03    8    7    8    4
   -0.48506051742E-03    8    7    8    5
   -0.13788381712E-01    8    7    8    6
    0.15283866712        8    7    8    7
    0.39248720010        8    8    1    1
    0.12416599290E-03    8    8    2    1
    0.39270660562        8    8    2    2
   -0.17260028919E-04    8    8    3    1
    0.45616019162E-04    8    8    3    2
    0.40117364176        8    8    3    3
    0.40323641185E-04    8    8    4    1
    0.48231035937E-04    8    8    4    2
   -0.87071001438E-03    8    8    4    3
    0.40749162106        8    8    4    4
   -0.69485397948E-04    8    8    5    1
   -0.66998263966E-04    8    8    5    2
   -0.12464847089E-03    8    8    5    3
    0.27934365980E-02    8    8    5    4
    0.40100148082        8    8    5    5
   -0.14479120134E-02    8    8    6    1
   -0.20464059256E-02    8    8    6    2
   -0.64806674662E-05    8    8    6    3
   -0.76109973669E-04    8    8    6    4
    0.36221579544E-04    8    8    6    5
    0.38735064129        8    8    6    6
   -0.12173072592E-01    8    8    7    1
    0.15123850235E-01    8    8    7    2
   -0.16931444213E-03    8    8    7    3
    0.70018434490E-04    8    8    7    4
   -0.57337852838E-04    8    8    7    5
   -0.23112947963E-02    8    8    7    6
    0.40728424849        8    8    7    7
    0.26165314951E-04    8    8    8    1
   -0.52744334318E-04    8    8    8    2
    0.10291873908E-02    8    8    8    3
   -0.78525678353E-02    8    8    8    4
   -0.26697486050E-02    8    8    8    5
    0.50058103784E-04    8    8    8    6
   -0.87895750171E-04    8    8    8    7
    0.41130350790        8    8    8    8
    0.70938777403E-02    9    1    1    1
    0.28256671773E-01    9    1    2    1
   -0.30661490777E-02    9    1    2    2
   -0.31662966686E-03    9    1    3    1
    0.31099904322E-03    9    1    3    2
    0.33836137563E-01    9    1    3    3
   -0.98943579245E-04    9    1    4    1
    0.20867234996E-04    9    1    4    2
    0.46764013096E-02    9    1    4    3
   -0.25916816428E-01    9    1    4    4
   -0.15054331870E-03    9    1    5    1
    0.55107843275E-04    9    1    5    2
   -0.80765813534E-02    9    1    5    3
   -0.18875104399E-01    9    1    5    4
    0.30957778369E-01    9    1    5    5
   -0.12644135288E-01    9    1    6    1
   -0.13025005837E-02    9    1    6    2
   -0.36643749496E-03    9    1    6    3
    0.39261347633E-03    9    1    6    4
    0.40780216887E-03    9    1    6    5
   -0.16448242832E-01    9    1    6    6
   -0.30444870541E-01    9    1    7    1
    0.33253319097E-01    9    1    7    2
   -0.38222732799E-03    9    1    7    3
   -0.55075631382E-04    9    1    7    4
   -0.41295103019E-04    9    1    7    5
   -0.11809078617E-01    9    1    7    6
   -0.26095020681E-02    9    1    7    7
   -0.90446000355E-04    9    1    8    1
   -0.12820615306E-04    9    1    8    2
    0.66921683294E-02    9    1    8    3
   -0.41969654459E-01    9    1    8    4
   -0.13782122108E-01    9    1    8    5
    0.16688723719E-03    9    1    8    6
   -0.16474908199E-03    9    1    8    7
    0.15127343430E-02    9    1    8    8
    0.20905664397E-01    9    1    9    1
    0.12107741705E-01    9    2    1    1
    0.41246583208E-01    9    2    2    1
   -0.11943424570E-01    9    2    2    2
   -0.45834555121E-03    9    2    3    1
    0.50619752939E-03    9    2    3    2
    0.52544899479E-01    9    2    3    3
   -0.99929433712E-04    9    2    4    1
    0.70468406338E-04    9    2    4    2
    0.11910784477E-01    9    2    4    3