 &FCI NORB=  4,NELEC=  4,MS2= 2,
  ORBSYM=1,1,1,1,
  ISYM=1,
  IUHF=1,
  OCC=  3,  0,  0,  0,  0,  0,  0,  0,
  CLOSED=  1,  0,  0,  0,  0,  0,  0,  0,
 /
  0.6056944046341101E+00   1   1   1   1
  0.0000000000000000E+00   2   1   1   1
  0.1306786669417981E+00   2   1   2   1
  0.6134378320710304E+00   2   2   1   1
  0.0000000000000000E+00   2   2   2   1
  0.6728327205216610E+00   2   2   2   2
  0.0000000000000000E+00   3   1   1   1
  0.0000000000000000E+00   3   1   2   1
  0.0000000000000000E+00   3   1   2   2
  0.1306786669417981E+00   3   1   3   1
  0.0000000000000000E+00   3   2   1   1
  0.0000000000000000E+00   3   2   2   1
  0.0000000000000000E+00   3   2   2   2
  0.0000000000000000E+00   3   2   3   1
  0.3626864143289574E-01   3   2   3   2
  0.6134378320710304E+00   3   3   1   1
  0.0000000000000000E+00   3   3   2   1
  0.6002954376558695E+00   3   3   2   2
  0.0000000000000000E+00   3   3   3   1
  0.0000000000000000E+00   3   3   3   2
  0.6728327205216610E+00   3   3   3   3
  0.0000000000000000E+00   4   1   1   1
  0.0000000000000000E+00   4   1   2   1
  0.0000000000000000E+00   4   1   2   2
  0.0000000000000000E+00   4   1   3   1
  0.0000000000000000E+00   4   1   3   2
  0.0000000000000000E+00   4   1   3   3
  0.1306786669417981E+00   4   1   4   1
  0.0000000000000000E+00   4   2   1   1
  0.0000000000000000E+00   4   2   2   1
  0.0000000000000000E+00   4   2   2   2
  0.0000000000000000E+00   4   2   3   1
  0.0000000000000000E+00   4   2   3   2
  0.0000000000000000E+00   4   2   3   3
  0.0000000000000000E+00   4   2   4   1
  0.3626864143289574E-01   4   2   4   2
  0.0000000000000000E+00   4   3   1   1
  0.0000000000000000E+00   4   3   2   1
  0.0000000000000000E+00   4   3   2   2
  0.0000000000000000E+00   4   3   3   1
  0.0000000000000000E+00   4   3   3   2
  0.0000000000000000E+00   4   3   3   3
  0.0000000000000000E+00   4   3   4   1
  0.0000000000000000E+00   4   3   4   2
  0.3626864143289574E-01   4   3   4   3
  0.6134378320710304E+00   4   4   1   1
  0.0000000000000000E+00   4   4   2   1
  0.6002954376558695E+00   4   4   2   2
  0.0000000000000000E+00   4   4   3   1
  0.0000000000000000E+00   4   4   3   2
  0.6002954376558695E+00   4   4   3   3
  0.0000000000000000E+00   4   4   4   1
  0.0000000000000000E+00   4   4   4   2
  0.0000000000000000E+00   4   4   4   3
  0.6728327205216610E+00   4   4   4   4
  0.0000000000000000E+00   0   0   0   0
  0.6052723095321143E+00   1   1   1   1
  0.0000000000000000E+00   2   1   1   1
  0.1310066357133064E+00   2   1   2   1
  0.6133043831807143E+00   2   2   1   1
  0.0000000000000000E+00   2   2   2   1
  0.6728327205216610E+00   2   2   2   2
  0.0000000000000000E+00   3   1   1   1
  0.0000000000000000E+00   3   1   2   1
  0.0000000000000000E+00   3   1   2   2
  0.1310066357133064E+00   3   1   3   1
  0.0000000000000000E+00   3   2   1   1
  0.0000000000000000E+00   3   2   2   1
  0.0000000000000000E+00   3   2   2   2
  0.0000000000000000E+00   3   2   3   1
  0.3626864143289574E-01   3   2   3   2
  0.6133043831807143E+00   3   3   1   1
  0.0000000000000000E+00   3   3   2   1
  0.6002954376558695E+00   3   3   2   2
  0.0000000000000000E+00   3   3   3   1
  0.0000000000000000E+00   3   3   3   2
  0.6728327205216610E+00   3   3   3   3
  0.0000000000000000E+00   4   1   1   1
  0.0000000000000000E+00   4   1   2   1
  0.0000000000000000E+00   4   1   2   2
  0.0000000000000000E+00   4   1   3   1
  0.0000000000000000E+00   4   1   3   2
  0.0000000000000000E+00   4   1   3   3
  0.1310066357133064E+00   4   1   4   1
  0.0000000000000000E+00   4   2   1   1
  0.0000000000000000E+00   4   2   2   1
  0.0000000000000000E+00   4   2   2   2
  0.0000000000000000E+00   4   2   3   1
  0.0000000000000000E+00   4   2   3   2
  0.0000000000000000E+00   4   2   3   3
  0.0000000000000000E+00   4   2   4   1
  0.3626864143289574E-01   4   2   4   2
  0.0000000000000000E+00   4   3   1   1
  0.0000000000000000E+00   4   3   2   1
  0.0000000000000000E+00   4   3   2   2
  0.0000000000000000E+00   4   3   3   1
  0.0000000000000000E+00   4   3   3   2
  0.0000000000000000E+00   4   3   3   3
  0.0000000000000000E+00   4   3   4   1
  0.0000000000000000E+00   4   3   4   2
  0.3626864143289574E-01   4   3   4   3
  0.6133043831807143E+00   4   4   1   1
  0.0000000000000000E+00   4   4   2   1
  0.6002954376558695E+00   4   4   2   2
  0.0000000000000000E+00   4   4   3   1
  0.0000000000000000E+00   4   4   3   2
  0.6002954376558695E+00   4   4   3   3
  0.0000000000000000E+00   4   4   4   1
  0.0000000000000000E+00   4   4   4   2
  0.0000000000000000E+00   4   4   4   3
  0.6728327205216610E+00   4   4   4   4
  0.0000000000000000E+00   0   0   0   0
  0.6054794776627288E+00   1   1   1   1
  0.0000000000000000E+00   1   1   2   1
  0.6134378320710304E+00   1   1   2   2
  0.0000000000000000E+00   1   1   3   1
  0.0000000000000000E+00   1   1   3   2
  0.6134378320710304E+00   1   1   3   3
  0.0000000000000000E+00   1   1   4   1
  0.0000000000000000E+00   1   1   4   2
  0.0000000000000000E+00   1   1   4   3
  0.6134378320710304E+00   1   1   4   4
  0.0000000000000000E+00   2   1   1   1
  0.0000000000000000E+00   2   1   2   1
  0.0000000000000000E+00   2   1   2   2
  0.1308423091338513E+00   2   1   3   1
  0.0000000000000000E+00   2   1   3   2
  0.0000000000000000E+00   2   1   3   3
  0.0000000000000000E+00   2   1   4   1
  0.0000000000000000E+00   2   1   4   2
  0.0000000000000000E+00   2   1   4   3
  0.0000000000000000E+00   2   1   4   4
  0.6133043831807143E+00   2   2   1   1
  0.0000000000000000E+00   2   2   2   1
  0.6002954376558695E+00   2   2   2   2
  0.0000000000000000E+00   2   2   3   1
  0.0000000000000000E+00   2   2   3   2
  0.6728327205216610E+00   2   2   3   3
  0.0000000000000000E+00   2   2   4   1
  0.0000000000000000E+00   2   2   4   2
  0.0000000000000000E+00   2   2   4   3
  0.6002954376558695E+00   2   2   4   4
  0.0000000000000000E+00   3   1   1   1
  0.0000000000000000E+00   3   1   2   1
  0.0000000000000000E+00   3   1   2   2
  0.0000000000000000E+00   3   1   3   1
  0.0000000000000000E+00   3   1   3   2
  0.0000000000000000E+00   3   1   3   3
  0.1308423091338513E+00   3   1   4   1
  0.0000000000000000E+00   3   1   4   2
  0.0000000000000000E+00   3   1   4   3
  0.0000000000000000E+00   3   1   4   4
  0.0000000000000000E+00   3   2   1   1
  0.0000000000000000E+00   3   2   2   1
  0.0000000000000000E+00   3   2   2   2
  0.0000000000000000E+00   3   2   3   1
  0.0000000000000000E+00   3   2   3   2
  0.0000000000000000E+00   3   2   3   3
  0.0000000000000000E+00   3   2   4   1
  0.0000000000000000E+00   3   2   4   2
  0.3626864143289574E-01   3   2   4   3
  0.0000000000000000E+00   3   2   4   4
  0.6133043831807143E+00   3   3   1   1
  0.0000000000000000E+00   3   3   2   1
  0.6002954376558695E+00   3   3   2   2
  0.0000000000000000E+00   3   3   3   1
  0.0000000000000000E+00   3   3   3   2
  0.6002954376558695E+00   3   3   3   3
  0.0000000000000000E+00   3   3   4   1
  0.0000000000000000E+00   3   3   4   2
  0.0000000000000000E+00   3   3   4   3
  0.6728327205216610E+00   3   3   4   4
  0.0000000000000000E+00   4   1   1   1
  0.1308423091338513E+00   4   1   2   1
  0.0000000000000000E+00   4   1   2   2
  0.0000000000000000E+00   4   1   3   1
  0.0000000000000000E+00   4   1   3   2
  0.0000000000000000E+00   4   1   3   3
  0.0000000000000000E+00   4   1   4   1
  0.0000000000000000E+00   4   1   4   2
  0.0000000000000000E+00   4   1   4   3
  0.0000000000000000E+00   4   1   4   4
  0.0000000000000000E+00   4   2   1   1
  0.0000000000000000E+00   4   2   2   1
  0.0000000000000000E+00   4   2   2   2
  0.0000000000000000E+00   4   2   3   1
  0.3626864143289574E-01   4   2   3   2
  0.0000000000000000E+00   4   2   3   3
  0.0000000000000000E+00   4   2   4   1
  0.0000000000000000E+00   4   2   4   2
  0.0000000000000000E+00   4   2   4   3
  0.0000000000000000E+00   4   2   4   4
  0.0000000000000000E+00   4   3   1   1
  0.0000000000000000E+00   4   3   2   1
  0.0000000000000000E+00   4   3   2   2
  0.0000000000000000E+00   4   3   3   1
  0.0000000000000000E+00   4   3   3   2
  0.0000000000000000E+00   4   3   3   3
  0.0000000000000000E+00   4   3   4   1
  0.3626864143289574E-01   4   3   4   2
  0.0000000000000000E+00   4   3   4   3
  0.0000000000000000E+00   4   3   4   4
  0.6133043831807143E+00   4   4   1   1
  0.0000000000000000E+00   4   4   2   1
  0.6728327205216610E+00   4   4   2   2
  0.0000000000000000E+00   4   4   3   1
  0.0000000000000000E+00   4   4   3   2
  0.6002954376558695E+00   4   4   3   3
  0.0000000000000000E+00   4   4   4   1
  0.0000000000000000E+00   4   4   4   2
  0.0000000000000000E+00   4   4   4   3
  0.6002954376558695E+00   4   4   4   4
  0.0000000000000000E+00   0   0   0   0
 -0.2299366355701848E+01   1   1   0   0
  0.0000000000000000E+00   2   1   0   0
 -0.1988117385074346E+01   2   2   0   0
  0.0000000000000000E+00   3   1   0   0
  0.0000000000000000E+00   3   2   0   0
 -0.1988117385074346E+01   3   3   0   0
  0.0000000000000000E+00   4   1   0   0
  0.0000000000000000E+00   4   2   0   0
  0.0000000000000000E+00   4   3   0   0
 -0.1988117385074346E+01   4   4   0   0
  0.0000000000000000E+00   0   0   0   0
 -0.2298768012328585E+01   1   1   0   0
  0.0000000000000000E+00   2   1   0   0
 -0.1987789416302838E+01   2   2   0   0
  0.0000000000000000E+00   3   1   0   0
  0.0000000000000000E+00   3   2   0   0
 -0.1987789416302838E+01   3   3   0   0
  0.0000000000000000E+00   4   1   0   0
  0.0000000000000000E+00   4   2   0   0
  0.0000000000000000E+00   4   3   0   0
 -0.1987789416302838E+01   4   4   0   0
  0.0000000000000000E+00   0   0   0   0
 -0.3198565679605801E+02   0   0   0   0
