 &FCI NORB=14 ,NELEC= 7 ,MS2= 3  
  ORBSYM=1,1,1,3,4,3,4,1,1,2,3,4,1,1,
  ISYM=2 UHF=.FALSE. 
 &END 
   0.413515482742E+01   1   1   1   1
   0.385216538798E+00   1   2   1   1
   0.965638987740E+00   2   2   1   1
   0.947410475328E+00   3   3   1   1
   0.947410475328E+00   4   4   1   1
   0.947410475328E+00   5   5   1   1
   0.433244576538E+00   4   6   1   1
   0.823003357720E+00   6   6   1   1
   0.433244576538E+00   5   7   1   1
   0.823003357720E+00   7   7   1   1
  -0.433244576538E+00   3   8   1   1
   0.823003357720E+00   8   8   1   1
   0.361908527132E+00   1   9   1   1
   0.385125011703E+00   2   9   1   1
   0.781418080243E+00   9   9   1   1
   0.769057420855E+00  10  10   1   1
   0.769057420855E+00  11  11   1   1
   0.769057420855E+00  12  12   1   1
   0.769057420855E+00  13  13   1   1
   0.769057420855E+00  14  14   1   1
   0.592158683716E-01   1   2   1   2
   0.143584486759E-01   2   2   1   2
   0.967805917570E-02   3   3   1   2
   0.967805917570E-02   4   4   1   2
   0.967805917570E-02   5   5   1   2
   0.114022478583E-01   4   6   1   2
   0.133338849721E-01   6   6   1   2
   0.114022478583E-01   5   7   1   2
   0.133338849721E-01   7   7   1   2
  -0.114022478583E-01   3   8   1   2
   0.133338849721E-01   8   8   1   2
   0.547765512193E-01   1   9   1   2
   0.133981372005E-01   2   9   1   2
   0.125526131869E-01   9   9   1   2
   0.597439316931E-03  10  10   1   2
   0.597439316931E-03  11  11   1   2
   0.597439316931E-03  12  12   1   2
   0.597439316931E-03  13  13   1   2
   0.597439316931E-03  14  14   1   2
   0.684000543095E+00   2   2   2   2
   0.669330258632E+00   3   3   2   2
   0.669330258632E+00   4   4   2   2
   0.669330258632E+00   5   5   2   2
   0.171844018920E+00   4   6   2   2
   0.544953599691E+00   6   6   2   2
   0.171844018920E+00   5   7   2   2
   0.544953599691E+00   7   7   2   2
  -0.171844018920E+00   3   8   2   2
   0.544953599691E+00   8   8   2   2
   0.142601801347E-01   1   9   2   2
   0.150965821530E+00   2   9   2   2
   0.555327107126E+00   9   9   2   2
   0.652288426307E+00  10  10   2   2
   0.652288426307E+00  11  11   2   2
   0.652288426307E+00  12  12   2   2
   0.652288426307E+00  13  13   2   2
   0.652288426307E+00  14  14   2   2
   0.280932112381E-01   1   3   1   3
  -0.302098524330E-01   2   3   1   3
  -0.326911604010E-01   1   8   1   3
   0.175505602677E-01   2   8   1   3
  -0.167459141675E-01   3   9   1   3
   0.218467089464E-01   8   9   1   3
   0.196191467292E-01   4  11   1   3
   0.937614153049E-02   6  11   1   3
   0.196191467292E-01   5  12   1   3
   0.937614153049E-02   7  12   1   3
  -0.221105911911E-01   3  13   1   3
   0.105668220536E-01   8  13   1   3
   0.493318507886E-02   3  14   1   3
  -0.235760719535E-02   8  14   1   3
   0.138107268983E+00   2   3   2   3
   0.324516410461E-01   1   8   2   3
  -0.371372894717E-01   2   8   2   3
   0.276367146200E-01   3   9   2   3
  -0.959620707460E-01   8   9   2   3
  -0.101629623978E+00   4  11   2   3
  -0.200779245494E-01   6  11   2   3
  -0.101629623978E+00   5  12   2   3
  -0.200779245494E-01   7  12   2   3
   0.114535616645E+00   3  13   2   3
  -0.226276294176E-01   8  13   2   3
  -0.255545132261E-01   3  14   2   3
   0.504854360736E-02   8  14   2   3
   0.705650480331E+00   3   3   3   3
   0.634383084894E+00   4   4   3   3
   0.634383084894E+00   5   5   3   3
   0.163245433407E+00   4   6   3   3
   0.525425388770E+00   6   6   3   3
   0.163245433407E+00   5   7   3   3
   0.525425388770E+00   7   7   3   3
  -0.184068806028E+00   3   8   3   3
   0.573186348783E+00   8   8   3   3
   0.102108584956E-01   1   9   3   3
   0.147332956549E+00   2   9   3   3
   0.548100648081E+00   9   9   3   3
   0.600188037021E+00  10  10   3   3
   0.654124673758E+00  11  11   3   3
   0.654124673758E+00  12  12   3   3
  -0.437573595091E-02   1  13   3   3
   0.523005411560E-01   2  13   3   3
   0.775229952057E-02   9  13   3   3
   0.668693363662E+00  13  13   3   3
   0.976288472589E-03   1  14   3   3
  -0.116689891743E-01   2  14   3   3
  -0.172964747940E-02   9  14   3   3
  -0.152845056149E-01  13  14   3   3
   0.603598226029E+00  14  14   3   3
   0.280932112381E-01   1   4   1   4
  -0.302098524330E-01   2   4   1   4
   0.326911604010E-01   1   6   1   4
  -0.175505602677E-01   2   6   1   4
  -0.167459141675E-01   4   9   1   4
  -0.218467089464E-01   6   9   1   4
  -0.196191467292E-01   5  10   1   4
  -0.937614153049E-02   7  10   1   4
   0.196191467292E-01   3  11   1   4
  -0.937614153049E-02   8  11   1   4
   0.678303199571E-02   4  13   1   4
   0.324166330348E-02   6  13   1   4
  -0.216149262036E-01   4  14   1   4
  -0.103299399334E-01   6  14   1   4
   0.138107268983E+00   2   4   2   4
  -0.324516410461E-01   1   6   2   4
   0.371372894717E-01   2   6   2   4
   0.276367146200E-01   4   9   2   4
   0.959620707460E-01   6   9   2   4
   0.101629623978E+00   5  10   2   4
   0.200779245494E-01   7  10   2   4
  -0.101629623978E+00   3  11   2   4
   0.200779245494E-01   8  11   2   4
  -0.351369506874E-01   4  13   2   4
  -0.694164769272E-02   6  13   2   4
   0.111968010266E+00   4  14   2   4
   0.221203737068E-01   6  14   2   4
   0.356336977183E-01   3   4   3   4
   0.104116863104E-01   3   6   3   4
  -0.104116863104E-01   4   8   3   4
  -0.238804800066E-01   6   8   3   4
   0.388267346300E-02   1  11   3   4
  -0.464072616642E-01   2  11   3   4
  -0.687876233015E-02   9  11   3   4
  -0.269683183684E-01  10  12   3   4
  -0.210691373024E-01  11  13   3   4
  -0.229305846886E-01  11  14   3   4
   0.705650480331E+00   4   4   4   4
   0.634383084894E+00   5   5   4   4
   0.184068806028E+00   4   6   4   4
   0.573186348783E+00   6   6   4   4
   0.163245433407E+00   5   7   4   4
   0.525425388770E+00   7   7   4   4
  -0.163245433407E+00   3   8   4   4
   0.525425388770E+00   8   8   4   4
   0.102108584956E-01   1   9   4   4
   0.147332956549E+00   2   9   4   4
   0.548100648081E+00   9   9   4   4
   0.654124673758E+00  10  10   4   4
   0.654124673758E+00  11  11   4   4
   0.600188037021E+00  12  12   4   4
   0.134237735677E-02   1  13   4   4
  -0.160446295166E-01   2  13   4   4
  -0.237823110354E-02   9  13   4   4
   0.606635240290E+00  13  13   4   4
  -0.427764273003E-02   1  14   4   4
   0.511280918599E-01   2  14   4   4
   0.757851206226E-02   9  14   4   4
  -0.205447686193E-01  13  14   4   4
   0.665656349401E+00  14  14   4   4
   0.280932112381E-01   1   5   1   5
  -0.302098524330E-01   2   5   1   5
   0.326911604010E-01   1   7   1   5
  -0.175505602677E-01   2   7   1   5
  -0.167459141675E-01   5   9   1   5
  -0.218467089464E-01   7   9   1   5
  -0.196191467292E-01   4  10   1   5
  -0.937614153049E-02   6  10   1   5
   0.196191467292E-01   3  12   1   5
  -0.937614153049E-02   8  12   1   5
   0.153275591954E-01   5  13   1   5
   0.732515875011E-02   7  13   1   5
   0.166817411248E-01   5  14   1   5
   0.797233273800E-02   7  14   1   5
   0.138107268983E+00   2   5   2   5
  -0.324516410461E-01   1   7   2   5
   0.371372894717E-01   2   7   2   5
   0.276367146200E-01   5   9   2   5
   0.959620707460E-01   7   9   2   5
   0.101629623978E+00   4  10   2   5
   0.200779245494E-01   6  10   2   5
  -0.101629623978E+00   3  12   2   5
   0.200779245494E-01   8  12   2   5
  -0.793986659578E-01   5  13   2   5
  -0.156859817249E-01   7  13   2   5
  -0.864134970398E-01   5  14   2   5
  -0.170718300994E-01   7  14   2   5
   0.356336977183E-01   3   5   3   5
   0.104116863104E-01   3   7   3   5
  -0.104116863104E-01   5   8   3   5
  -0.238804800066E-01   7   8   3   5
  -0.269683183684E-01  10  11   3   5
   0.388267346300E-02   1  12   3   5
  -0.464072616642E-01   2  12   3   5
  -0.687876233015E-02   9  12   3   5
  -0.932390021280E-02  12  13   3   5
   0.297117004840E-01  12  14   3   5
   0.356336977183E-01   4   5   4   5
   0.104116863104E-01   5   6   4   5
   0.104116863104E-01   4   7   4   5
   0.238804800066E-01   6   7   4   5
  -0.388267346300E-02   1  10   4   5
   0.464072616642E-01   2  10   4   5
   0.687876233015E-02   9  10   4   5
   0.269683183684E-01  11  12   4   5
  -0.303930375152E-01  10  13   4   5
   0.678111579536E-02  10  14   4   5
   0.705650480331E+00   5   5   5   5
   0.163245433407E+00   4   6   5   5
   0.525425388770E+00   6   6   5   5
   0.184068806028E+00   5   7   5   5
   0.573186348783E+00   7   7   5   5
  -0.163245433407E+00   3   8   5   5
   0.525425388770E+00   8   8   5   5
   0.102108584956E-01   1   9   5   5
   0.147332956549E+00   2   9   5   5
   0.548100648081E+00   9   9   5   5
   0.654124673758E+00  10  10   5   5
   0.600188037021E+00  11  11   5   5
   0.654124673758E+00  12  12   5   5
   0.303335859414E-02   1  13   5   5
  -0.362559116394E-01   2  13   5   5
  -0.537406841703E-02   9  13   5   5
   0.633108780584E+00  13  13   5   5
   0.330135425744E-02   1  14   5   5
  -0.394591026856E-01   2  14   5   5
  -0.584886458286E-02   9  14   5   5
   0.358292742342E-01  13  14   5   5
   0.639182809107E+00  14  14   5   5
   0.381751539652E-01   1   6   1   6
  -0.189897492450E-01   2   6   1   6
  -0.181200806459E-01   4   9   1   6
  -0.237218998692E-01   6   9   1   6
  -0.210187143423E-01   5  10   1   6
  -0.101898980218E-01   7  10   1   6
   0.210187143423E-01   3  11   1   6
  -0.101898980218E-01   8  11   1   6
   0.726691195393E-02   4  13   1   6
   0.352300766537E-02   6  13   1   6
  -0.231568663854E-01   4  14   1   6
  -0.112264767069E-01   6  14   1   6
   0.349941108313E-01   2   6   2   6
   0.367784057600E-01   4   9   2   6
   0.153141697233E-01   6   9   2   6
   0.231926040960E-01   5  10   2   6
   0.187404475700E-01   7  10   2   6
  -0.231926040960E-01   3  11   2   6
   0.187404475700E-01   8  11   2   6
  -0.801850242613E-02   4  13   2   6
  -0.647923465968E-02   6  13   2   6
   0.255518974869E-01   4  14   2   6
   0.206468403973E-01   6  14   2   6
   0.144814181091E-01   3   6   3   6
  -0.144814181091E-01   4   8   3   6
  -0.390255820950E-02   6   8   3   6
   0.279504864614E-02   1  11   3   6
  -0.103490806676E-01   2  11   3   6
  -0.126694830638E-01   9  11   3   6
  -0.455755423914E-02  10  12   3   6
  -0.356061266837E-02  11  13   3   6
  -0.387519095651E-02  11  14   3   6
   0.132051039344E+00   4   6   4   6
   0.126596865438E+00   6   6   4   6
   0.103088203125E+00   5   7   4   6
   0.118791749019E+00   7   7   4   6
  -0.103088203125E+00   3   8   4   6
   0.118791749019E+00   8   8   4   6
   0.114180531768E-01   1   9   4   6
   0.100413887640E+00   2   9   4   6
   0.112735484825E+00   9   9   4   6
   0.138851419283E+00  10  10   4   6
   0.138851419283E+00  11  11   4   6
   0.129736310804E+00  12  12   4   6
   0.966347041386E-03   1  13   4   6
  -0.357804272854E-02   2  13   4   6
  -0.438028779624E-02   9  13   4   6
   0.130825866267E+00  13  13   4   6
  -0.307937807162E-02   1  14   4   6
   0.114018523840E-01   2  14   4   6
   0.139583002891E-01   9  14   4   6
  -0.347199614131E-02  13  14   4   6
   0.140800233313E+00  14  14   4   6
   0.144814181091E-01   5   6   5   6
   0.144814181091E-01   4   7   5   6
   0.390255820950E-02   6   7   5   6
  -0.279504864614E-02   1  10   5   6
   0.103490806676E-01   2  10   5   6
   0.126694830638E-01   9  10   5   6
   0.455755423914E-02  11  12   5   6
  -0.513632014704E-02  10  13   5   6
   0.114598554560E-02  10  14   5   6
   0.504715121787E+00   6   6   6   6
   0.118791749019E+00   5   7   6   6
   0.458133559278E+00   7   7   6   6
  -0.118791749019E+00   3   8   6   6
   0.458133559278E+00   8   8   6   6
   0.133626549533E-01   1   9   6   6
   0.103075269911E+00   2   9   6   6
   0.473942526270E+00   9   9   6   6
   0.522807750169E+00  10  10   6   6
   0.522807750169E+00  11  11   6   6
   0.492418345910E+00  12  12   6   6
   0.104200315953E-02   1  13   6   6
  -0.937232396017E-02   2  13   6   6
  -0.522075496118E-03   9  13   6   6
   0.496050879905E+00  13  13   6   6
  -0.332046515651E-02   1  14   6   6
   0.298660084286E-01   2  14   6   6
   0.166365473854E-02   9  14   6   6
  -0.115754951876E-01  13  14   6   6
   0.529305017595E+00  14  14   6   6
   0.381751539652E-01   1   7   1   7
  -0.189897492450E-01   2   7   1   7
  -0.181200806459E-01   5   9   1   7
  -0.237218998692E-01   7   9   1   7
  -0.210187143423E-01   4  10   1   7
  -0.101898980218E-01   6  10   1   7
   0.210187143423E-01   3  12   1   7
  -0.101898980218E-01   8  12   1   7
   0.164209785849E-01   5  13   1   7
   0.796091019048E-02   7  13   1   7
   0.178717635519E-01   5  14   1   7
   0.866425248939E-02   7  14   1   7
   0.349941108313E-01   2   7   2   7
   0.367784057600E-01   5   9   2   7
   0.153141697233E-01   7   9   2   7
   0.231926040960E-01   4  10   2   7
   0.187404475700E-01   6  10   2   7
  -0.231926040960E-01   3  12   2   7
   0.187404475700E-01   8  12   2   7
  -0.181193411255E-01   5  13   2   7
  -0.146410709621E-01   7  13   2   7
  -0.197201755448E-01   5  14   2   7
  -0.159346020110E-01   7  14   2   7
   0.144814181091E-01   3   7   3   7
  -0.144814181091E-01   5   8   3   7
  -0.390255820950E-02   7   8   3   7
  -0.455755423914E-02  10  11   3   7
   0.279504864614E-02   1  12   3   7
  -0.103490806676E-01   2  12   3   7
  -0.126694830638E-01   9  12   3   7
  -0.157570747866E-02  12  13   3   7
   0.502117650210E-02  12  14   3   7
   0.144814181091E-01   4   7   4   7
   0.390255820950E-02   6   7   4   7
  -0.279504864614E-02   1  10   4   7
   0.103490806676E-01   2  10   4   7
   0.126694830638E-01   9  10   4   7
   0.455755423914E-02  11  12   4   7
  -0.513632014704E-02  10  13   4   7
   0.114598554560E-02  10  14   4   7
   0.132051039344E+00   5   7   5   7
   0.126596865438E+00   7   7   5   7
  -0.103088203125E+00   3   8   5   7
   0.118791749019E+00   8   8   5   7
   0.114180531768E-01   1   9   5   7
   0.100413887640E+00   2   9   5   7
   0.112735484825E+00   9   9   5   7
   0.138851419283E+00  10  10   5   7
   0.129736310804E+00  11  11   5   7
   0.138851419283E+00  12  12   5   7
   0.218364611718E-02   1  13   5   7
  -0.808527245045E-02   2  13   5   7
  -0.989809874586E-02   9  13   5   7
   0.135299804691E+00  13  13   5   7
   0.237657012252E-02   1  14   5   7
  -0.879960209072E-02   2  14   5   7
  -0.107725906520E-01   9  14   5   7
   0.605502569498E-02  13  14   5   7
   0.136326294889E+00  14  14   5   7
   0.232907812547E-01   6   7   6   7
  -0.301387534248E-02   1  10   6   7
   0.271083785370E-01   2  10   6   7
   0.151004385186E-02   9  10   6   7
   0.151947021296E-01  11  12   6   7
  -0.171242843379E-01  10  13   6   7
   0.382066961717E-02  10  14   6   7
   0.504715121787E+00   7   7   7   7
  -0.118791749019E+00   3   8   7   7
   0.458133559278E+00   8   8   7   7
   0.133626549533E-01   1   9   7   7
   0.103075269911E+00   2   9   7   7
   0.473942526270E+00   9   9   7   7
   0.522807750169E+00  10  10   7   7
   0.492418345910E+00  11  11   7   7
   0.522807750169E+00  12  12   7   7
   0.235460559815E-02   1  13   7   7
  -0.211785600288E-01   2  13   7   7
  -0.117972951864E-02   9  13   7   7
   0.510966810278E+00  13  13   7   7
   0.256263378523E-02   1  14   7   7
  -0.230496748563E-01   2  14   7   7
  -0.128395801160E-02   9  14   7   7
   0.201872116040E-01  13  14   7   7
   0.514389087221E+00  14  14   7   7
   0.381751539652E-01   1   8   1   8
  -0.189897492450E-01   2   8   1   8
   0.181200806459E-01   3   9   1   8
  -0.237218998692E-01   8   9   1   8
  -0.210187143423E-01   4  11   1   8
  -0.101898980218E-01   6  11   1   8
  -0.210187143423E-01   5  12   1   8
  -0.101898980218E-01   7  12   1   8
   0.236878905388E-01   3  13   1   8
  -0.114839178559E-01   8  13   1   8
  -0.528510283354E-02   3  14   1   8
   0.256222421751E-02   8  14   1   8
   0.349941108313E-01   2   8   2   8
  -0.367784057600E-01   3   9   2   8
   0.153141697233E-01   8   9   2   8
   0.231926040960E-01   4  11   2   8
   0.187404475700E-01   6  11   2   8
   0.231926040960E-01   5  12   2   8
   0.187404475700E-01   7  12   2   8
  -0.261378435516E-01   3  13   2   8
   0.211203056218E-01   8  13   2   8
   0.583172194210E-02   3  14   2   8
  -0.471223838628E-02   8  14   2   8
   0.132051039344E+00   3   8   3   8
  -0.126596865438E+00   8   8   3   8
  -0.114180531768E-01   1   9   3   8
  -0.100413887640E+00   2   9   3   8
  -0.112735484825E+00   9   9   3   8
  -0.129736310804E+00  10  10   3   8
  -0.138851419283E+00  11  11   3   8
  -0.138851419283E+00  12  12   3   8
   0.314999315857E-02   1  13   3   8
  -0.116633151790E-01   2  13   3   8
  -0.142783865421E-01   9  13   3   8
  -0.141313478412E+00  13  13   3   8
  -0.702807949097E-03   1  14   3   8
   0.260225029325E-02   2  14   3   8
   0.318570963710E-02   9  14   3   8
   0.258302955366E-02  13  14   3   8
  -0.130312621168E+00  14  14   3   8
   0.144814181091E-01   4   8   4   8
   0.390255820950E-02   6   8   4   8
  -0.279504864614E-02   1  11   4   8
   0.103490806676E-01   2  11   4   8
   0.126694830638E-01   9  11   4   8
   0.455755423914E-02  10  12   4   8
   0.356061266837E-02  11  13   4   8
   0.387519095651E-02  11  14   4   8
   0.144814181091E-01   5   8   5   8
   0.390255820950E-02   7   8   5   8
   0.455755423914E-02  10  11   5   8
  -0.279504864614E-02   1  12   5   8
   0.103490806676E-01   2  12   5   8
   0.126694830638E-01   9  12   5   8
   0.157570747866E-02  12  13   5   8
  -0.502117650210E-02  12  14   5   8
   0.232907812547E-01   6   8   6   8
  -0.301387534248E-02   1  11   6   8
   0.271083785370E-01   2  11   6   8
   0.151004385186E-02   9  11   6   8
   0.151947021296E-01  10  12   6   8
   0.118709391169E-01  11  13   6   8
   0.129197304496E-01  11  14   6   8
   0.232907812547E-01   7   8   7   8
   0.151947021296E-01  10  11   7   8
  -0.301387534248E-02   1  12   7   8
   0.271083785370E-01   2  12   7   8
   0.151004385186E-02   9  12   7   8
   0.525334522100E-02  12  13   7   8
  -0.167404000668E-01  12  14   7   8
   0.504715121787E+00   8   8   8   8
   0.133626549533E-01   1   9   8   8
   0.103075269911E+00   2   9   8   8
   0.473942526270E+00   9   9   8   8
   0.492418345910E+00  10  10   8   8
   0.522807750169E+00  11  11   8   8
   0.522807750169E+00  12  12   8   8
  -0.339660875768E-02   1  13   8   8
   0.305508839889E-01   2  13   8   8
   0.170180501476E-02   9  13   8   8
   0.531016156066E+00  13  13   8   8
   0.757831371276E-03   1  14   8   8
  -0.681633357232E-02   2  14   8   8
  -0.379696726938E-03   9  14   8   8
  -0.861171641638E-02  13  14   8   8
   0.494339741433E+00  14  14   8   8
   0.509375572501E-01   1   9   1   9
   0.128560652571E-01   2   9   1   9
   0.122378093862E-01   9   9   1   9
   0.149869423955E-02  10  10   1   9
   0.149869423955E-02  11  11   1   9
   0.149869423955E-02  12  12   1   9
   0.149869423955E-02  13  13   1   9
   0.149869423955E-02  14  14   1   9
   0.921824294779E-01   2   9   2   9
   0.970079925251E-01   9   9   2   9
   0.117605578686E+00  10  10   2   9
   0.117605578686E+00  11  11   2   9
   0.117605578686E+00  12  12   2   9
   0.117605578686E+00  13  13   2   9
   0.117605578686E+00  14  14   2   9
   0.400293245068E-01   3   9   3   9
  -0.681504201699E-02   8   9   3   9
  -0.155199777894E-01   4  11   3   9
  -0.198025389718E-01   6  11   3   9
  -0.155199777894E-01   5  12   3   9
  -0.198025389718E-01   7  12   3   9
   0.174908669033E-01   3  13   3   9
  -0.223172724989E-01   8  13   3   9
  -0.390245936337E-02   3  14   3   9
   0.497929859680E-02   8  14   3   9
   0.400293245068E-01   4   9   4   9
   0.681504201699E-02   6   9   4   9
   0.155199777894E-01   5  10   4   9
   0.198025389718E-01   7  10   4   9
  -0.155199777894E-01   3  11   4   9
   0.198025389718E-01   8  11   4   9
  -0.536580450572E-02   4  13   4   9
  -0.684643717160E-02   6  13   4   9
   0.170987647541E-01   4  14   4   9
   0.218169742256E-01   6  14   4   9
   0.400293245068E-01   5   9   5   9
   0.681504201699E-02   7   9   5   9
   0.155199777894E-01   4  10   5   9
   0.198025389718E-01   6  10   5   9
  -0.155199777894E-01   3  12   5   9
   0.198025389718E-01   8  12   5   9
  -0.121250623975E-01   5  13   5   9
  -0.154708353273E-01   7  13   5   9
  -0.131963053907E-01   5  14   5   9
  -0.168376756288E-01   7  14   5   9
   0.836401062505E-01   6   9   6   9
   0.687494345756E-01   5  10   6   9
   0.825004649592E-02   7  10   6   9
  -0.687494345756E-01   3  11   6   9
   0.825004649592E-02   8  11   6   9
  -0.237691078439E-01   4  13   6   9
  -0.285233247502E-02   6  13   6   9
   0.757430471061E-01   4  14   6   9
   0.908929163164E-02   6  14   6   9
   0.836401062505E-01   7   9   7   9
   0.687494345756E-01   4  10   7   9
   0.825004649592E-02   6  10   7   9
  -0.687494345756E-01   3  12   7   9
   0.825004649592E-02   8  12   7   9
  -0.537108490319E-01   5  13   7   9
  -0.644539121790E-02   7  13   7   9
  -0.584561747712E-01   5  14   7   9
  -0.701483819923E-02   7  14   7   9
   0.836401062505E-01   8   9   8   9
   0.687494345756E-01   4  11   8   9
   0.825004649592E-02   6  11   8   9
   0.687494345756E-01   5  12   8   9
   0.825004649592E-02   7  12   8   9
  -0.774799568759E-01   3  13   8   9
   0.929772369292E-02   8  13   8   9
   0.172868723349E-01   3  14   8   9
  -0.207445343242E-02   8  14   8   9
   0.480616612228E+00   9   9   9   9
   0.529363949114E+00  10  10   9   9
   0.529363949114E+00  11  11   9   9
   0.529363949114E+00  12  12   9   9
   0.529363949114E+00  13  13   9   9
   0.529363949114E+00  14  14   9   9
   0.828908452582E-03   1  10   1  10
  -0.384383096057E-02   2  10   1  10
  -0.194130649117E-02   9  10   1  10
  -0.194391102032E-02  11  12   1  10
   0.219076917439E-02  10  13   1  10
  -0.488791534740E-03  10  14   1  10
   0.652626924089E-01   2  10   2  10
   0.692779791165E-02   9  10   2  10
   0.389895923361E-01  11  12   2  10
  -0.439408985901E-01  10  13   2  10
   0.980383488630E-02  10  14   2  10
   0.142652938473E-01   3  10   3  10
  -0.234461039291E-02   8  10   3  10
  -0.142652938473E-01   5  11   3  10
  -0.234461039291E-02   7  11   3  10
  -0.142652938473E-01   4  12   3  10
  -0.234461039291E-02   6  12   3  10
   0.993430519866E-01   4  10   4  10
   0.164063754520E-01   6  10   4  10
  -0.708124642920E-01   3  12   4  10
   0.117171546662E-01   8  12   4  10
  -0.602546175489E-01   5  13   4  10
  -0.996470191894E-02   7  13   4  10
  -0.444938781484E-01   5  14   4  10
  -0.737972768336E-02   7  14   4  10
   0.993430519866E-01   5  10   5  10
   0.164063754520E-01   7  10   5  10
  -0.708124642920E-01   3  11   5  10
   0.117171546662E-01   8  11   5  10
  -0.356272042061E-01   4  13   5  10
  -0.588277314910E-02   6  13   5  10
   0.658864663577E-01   4  14   5  10
   0.109155231249E-01   6  14   5  10
   0.151684625577E-01   6  10   6  10
  -0.117171546662E-01   3  12   6  10
   0.923412847210E-02   8  12   6  10
  -0.996470191894E-02   5  13   6  10
  -0.824006476904E-02   7  13   6  10
  -0.737972768336E-02   5  14   6  10
  -0.458257666664E-02   7  14   6  10
   0.151684625577E-01   7  10   7  10
  -0.117171546662E-01   3  11   7  10
   0.923412847210E-02   8  11   7  10
  -0.588277314910E-02   4  13   7  10
  -0.551067887212E-02   6  13   7  10
   0.109155231249E-01   4  14   7  10
   0.765056172265E-02   6  14   7  10
   0.296716704279E-02   8  10   8  10
   0.234461039291E-02   5  11   8  10
   0.296716704279E-02   7  11   8  10
   0.234461039291E-02   4  12   8  10
   0.296716704279E-02   6  12   8  10
   0.136069602157E-01   9  10   9  10
   0.245861878872E-02  11  12   9  10
  -0.277083991890E-02  10  13   9  10
   0.618213507982E-03  10  14   9  10
   0.695124014758E+00  10  10  10  10
   0.623486780049E+00  11  11  10  10
   0.623486780049E+00  12  12  10  10
   0.219076917439E-02   1  13  10  10
  -0.439408985901E-01   2  13  10  10
  -0.277083991890E-02   9  13  10  10
   0.615615693634E+00  13  13  10  10
  -0.488791534740E-03   1  14  10  10
   0.980383488630E-02   2  14  10  10
   0.618213507982E-03   9  14  10  10
   0.825782313306E-02  13  14  10  10
   0.650784913165E+00  14  14  10  10
   0.828908452582E-03   1  11   1  11
  -0.384383096057E-02   2  11   1  11
  -0.194130649117E-02   9  11   1  11
  -0.194391102032E-02  10  12   1  11
  -0.151869047344E-02  11  13   1  11
  -0.165286599148E-02  11  14   1  11
   0.652626924089E-01   2  11   2  11
   0.692779791165E-02   9  11   2  11
   0.389895923361E-01  10  12   2  11
   0.304608193611E-01  11  13   2  11
   0.331520170010E-01  11  14   2  11
   0.993430519866E-01   3  11   3  11
  -0.164063754520E-01   8  11   3  11
   0.840552001500E-02   4  13   3  11
   0.140868068733E-02   6  13   3  11
  -0.744289685668E-01   4  14   3  11
  -0.123195488446E-01   6  14   3  11
   0.993430519866E-01   4  11   4  11
   0.164063754520E-01   6  11   4  11
   0.708124642920E-01   5  12   4  11
   0.117171546662E-01   7  12   4  11
  -0.748729557344E-01   3  13   4  11
   0.123945068963E-01   8  13   4  11
   0.208916927053E-02   3  14   4  11
  -0.363130570626E-03   8  14   4  11
   0.142652938473E-01   5  11   5  11
   0.234461039291E-02   7  11   5  11
   0.142652938473E-01   4  12   5  11
   0.234461039291E-02   6  12   5  11
   0.151684625577E-01   6  11   6  11
   0.117171546662E-01   5  12   6  11
   0.923412847210E-02   7  12   6  11
  -0.123945068963E-01   3  13   6  11
   0.938092024110E-02   8  13   6  11
   0.363130570626E-03   3  14   6  11
   0.947107034035E-03   8  14   6  11
   0.296716704279E-02   7  11   7  11
   0.234461039291E-02   4  12   7  11
   0.296716704279E-02   6  12   7  11
   0.151684625577E-01   8  11   8  11
  -0.140868068733E-02   4  13   8  11
   0.151404576418E-03   6  13   8  11
   0.123195488446E-01   4  14   8  11
   0.942739375214E-02   6  14   8  11
   0.136069602157E-01   9  11   9  11
   0.245861878872E-02  10  12   9  11
   0.192080856233E-02  11  13   9  11
   0.209051100560E-02  11  14   9  11
   0.358186173543E-01  10  11  10  11
  -0.194391102032E-02   1  12  10  11
   0.389895923361E-01   2  12  10  11
   0.245861878872E-02   9  12  10  11
   0.503746217298E-02  12  13  10  11
  -0.160524634399E-01  12  14  10  11
   0.695124014758E+00  11  11  11  11
   0.623486780049E+00  12  12  11  11
  -0.151869047344E-02   1  13  11  11
   0.304608193611E-01   2  13  11  11
   0.192080856233E-02   9  13  11  11
   0.634841123669E+00  13  13  11  11
  -0.165286599148E-02   1  14  11  11
   0.331520170010E-01   2  14  11  11
   0.209051100560E-02   9  14  11  11
  -0.193576303393E-01  13  14  11  11
   0.631559483130E+00  14  14  11  11
   0.828908452582E-03   1  12   1  12
  -0.384383096057E-02   2  12   1  12
  -0.194130649117E-02   9  12   1  12
  -0.672078700956E-03  12  13   1  12
   0.214165752622E-02  12  14   1  12
   0.652626924089E-01   2  12   2  12
   0.692779791165E-02   9  12   2  12
   0.134800792290E-01  12  13   2  12
  -0.429558518873E-01  12  14   2  12
   0.993430519866E-01   3  12   3  12
  -0.164063754520E-01   8  12   3  12
   0.392457515283E-01   5  13   3  12
   0.651173374721E-02   7  13   3  12
   0.637972970872E-01   5  14   3  12
   0.105523925543E-01   7  14   3  12
   0.142652938473E-01   4  12   4  12
   0.234461039291E-02   6  12   4  12
   0.993430519866E-01   5  12   5  12
   0.164063754520E-01   7  12   5  12
  -0.686601375639E-01   3  13   5  12
   0.113733826063E-01   8  13   5  12
   0.299350904184E-01   3  14   5  12
  -0.493982116126E-02   8  14   5  12
   0.296716704279E-02   6  12   6  12
   0.151684625577E-01   7  12   7  12
  -0.113733826063E-01   3  13   7  12
   0.808866019263E-02   8  13   7  12
   0.493982116126E-02   3  14   7  12
  -0.484481708550E-02   8  14   7  12
   0.151684625577E-01   8  12   8  12
  -0.651173374721E-02   5  13   8  12
  -0.387024136897E-02   7  13   8  12
  -0.105523925543E-01   5  14   8  12
  -0.859766875668E-02   7  14   8  12
   0.136069602157E-01   9  12   9  12
   0.850031356576E-03  12  13   9  12
  -0.270872451358E-02  12  14   9  12
   0.358186173543E-01  10  12  10  12
   0.113831100458E-01  11  13  10  12
   0.123888019323E-01  11  14  10  12
   0.358186173543E-01  11  12  11  12
  -0.164205722187E-01  10  13  11  12
   0.366366150753E-02  10  14  11  12
   0.695124014758E+00  12  12  12  12
  -0.672078700956E-03   1  13  12  12
   0.134800792290E-01   2  13  12  12
   0.850031356576E-03   9  13  12  12
   0.649144092896E+00  13  13  12  12
   0.214165752622E-02   1  14  12  12
  -0.429558518873E-01   2  14  12  12
  -0.270872451358E-02   9  14  12  12
   0.110998072062E-01  13  14  12  12
   0.617256513904E+00  14  14  12  12
   0.828908452582E-03   1  13   1  13
  -0.384383096057E-02   2  13   1  13
  -0.194130649117E-02   9  13   1  13
  -0.177522952959E-02  13  13   1  13
   0.137366184237E-02  13  14   1  13
   0.177522952959E-02  14  14   1  13
   0.652626924089E-01   2  13   2  13
   0.692779791165E-02   9  13   2  13
   0.356062983018E-01  13  13   2  13
  -0.275519376566E-01  13  14   2  13
  -0.356062983018E-01  14  14   2  13
   0.122323192223E+00   3  13   3  13
  -0.202045636048E-01   8  13   3  13
  -0.241092428200E-01   3  14   3  13
   0.398480773003E-02   8  14   3  13
   0.244348860506E-01   4  13   4  13
   0.402545412266E-02   6  13   4  13
  -0.324065970992E-01   4  14   4  13
  -0.535620548473E-02   6  14   4  13
   0.661933195468E-01   5  13   5  13
   0.109273435695E-01   7  13   5  13
   0.565158399192E-01   5  14   5  13
   0.934101321476E-02   7  14   5  13
   0.442562342966E-02   6  13   6  13
  -0.535620548473E-02   4  14   6  13
  -0.464754216011E-02   6  14   6  13
   0.104143447884E-01   7  13   7  13
   0.934101321476E-02   5  14   7  13
   0.810513204870E-02   7  14   7  13
   0.184641239401E-01   8  13   8  13
   0.398480773003E-02   3  14   8  13
  -0.345758988859E-02   8  14   8  13
   0.136069602157E-01   9  13   9  13