 &FCI NORB=20,NELEC=  4,MS2=  0
  ORBSYM=1,6,1,6,1,6,1,6,1,6,8,7,3,4,8,7,3,4,1,6,
  ISYM=1 UHF=.FALSE.
 &END
     0.19027213488015  1  1  1  1
  -0.0098963701642955  1  3  1  1
    0.038671732172453  1  5  1  1
   0.0082584579353498  1  7  1  1
  -0.0010836935924915  1  9  1  1
   0.0013075373970126  1 19  1  1
     0.13179752396048  1  2  1  2
  -0.0063843228776228  1  4  1  2
   -0.038258885512548  1  6  1  2
  -0.0092145520245964  1  8  1  2
   0.0025324661185064  1 10  1  2
  -0.0013499855519546  1 20  1  2
  -0.0098963701642955  1  1  1  3
     0.11524524717159  1  3  1  3
   -0.009235183720444  1  5  1  3
     0.03811408249825  1  7  1  3
 -0.00051319002748688  1  9  1  3
  -0.0018837113530651  1 19  1  3
  -0.0063843228776228  1  2  1  4
     0.10685620076745  1  4  1  4
   0.0083397448841265  1  6  1  4
   -0.038236170334852  1  8  1  4
  0.00053184130465937  1 10  1  4
  0.00040779954089979  1 20  1  4
    0.038671732172453  1  1  1  5
   -0.009235183720444  1  3  1  5
     0.03281825228603  1  5  1  5
 -0.00038234933093786  1  7  1  5
 -4.6842676892321e-05  1  9  1  5
 -6.1483491335797e-05  1 19  1  5
   -0.038258885512548  1  2  1  6
   0.0083397448841265  1  4  1  6
     0.03233206897353  1  6  1  6
  0.00038012747207749  1  8  1  6
 -3.2503734417125e-05  1 10  1  6
 -5.2036663032937e-05  1 20  1  6
   0.0082584579353498  1  1  1  7
     0.03811408249825  1  3  1  7
 -0.00038234933093786  1  5  1  7
    0.032200603792215  1  7  1  7
 -3.4904165118047e-06  1  9  1  7
  0.00022450658332785  1 19  1  7
  -0.0092145520245964  1  2  1  8
   -0.038236170334852  1  4  1  8
  0.00038012747207747  1  6  1  8
    0.032466446421093  1  8  1  8
   8.321337883346e-06  1 10  1  8
  0.00020777922993181  1 20  1  8
  -0.0010836935924915  1  1  1  9
 -0.00051319002748688  1  3  1  9
 -4.6842676892321e-05  1  5  1  9
 -3.4904165118046e-06  1  7  1  9
    0.029509275131671  1  9  1  9
  0.00051236929057765  1 19  1  9
   0.0025324661185064  1  2  1 10
  0.00053184130465937  1  4  1 10
 -3.2503734417125e-05  1  6  1 10
  8.3213378833451e-06  1  8  1 10
    0.029336279025815  1 10  1 10
 -0.00030998862437623  1 20  1 10
    0.029367538764176  1 11  1 11
  0.00046301745416383  1 15  1 11
    0.029367538764173  1 12  1 12
  0.00046301745416436  1 16  1 12
    0.029228759770307  1 13  1 13
 -0.00035702696665918  1 17  1 13
    0.029228759770304  1 14  1 14
 -0.00035702696665979  1 18  1 14
  0.00046301745416382  1 11  1 15
    0.029181379228874  1 15  1 15
  0.00046301745416436  1 12  1 16
    0.029181379228876  1 16  1 16
 -0.00035702696665918  1 13  1 17
    0.029093379757581  1 17  1 17
 -0.00035702696665979  1 14  1 18
    0.029093379757585  1 18  1 18
   0.0013075373970126  1  1  1 19
  -0.0018837113530651  1  3  1 19
 -6.1483491335796e-05  1  5  1 19
  0.00022450658332785  1  7  1 19
  0.00051236929057766  1  9  1 19
    0.029139109794647  1 19  1 19
  -0.0013499855519546  1  2  1 20
  0.00040779954089979  1  4  1 20
 -5.2036663032937e-05  1  6  1 20
  0.00020777922993181  1  8  1 20
 -0.00030998862437623  1 10  1 20
    0.028869818972003  1 20  1 20
     0.19011496861798  2  2  1  1
    0.010032912141165  2  4  1  1
   -0.038374874467948  2  6  1  1
   -0.009303803465095  2  8  1  1
   0.0011236348992132  2 10  1  1
   0.0013041590187575  2 20  1  1
     0.13179752396048  2  1  1  2
    0.010260367876912  2  3  1  2
    0.038667344171348  2  5  1  2
   0.0091562465775925  2  7  1  2
  -0.0025391701388163  2  9  1  2
   -0.001308711789975  2 19  1  2
  -0.0066374640618106  2  2  1  3
    -0.11537572673625  2  4  1  3
  -0.0093947152142952  2  6  1  3
    0.038035520854496  2  8  1  3
  0.00044998422218205  2 10  1  3
  -0.0018713377304494  2 20  1  3
  -0.0063843228776228  2  1  1  4
    -0.10703936800943  2  3  1  4
   0.0094587832300776  2  5  1  4
   -0.038288345868828  2  7  1  4
 -0.00055649669202117  2  9  1  4
   0.0004093113145764  2 19  1  4
    0.038514838968159  2  2  1  5
   0.0093533933755762  2  4  1  5
   -0.029178446482183  2  6  1  5
   -0.014549695386961  2  8  1  5
  5.5434993793984e-05  2 10  1  5
 -7.0827819486807e-05  2 20  1  5
   -0.038258885512548  2  1  1  6
  -0.0094683762646392  2  3  1  6
   -0.029178396816974  2  5  1  6
   -0.014545025836236  2  7  1  6
  3.1710117195248e-05  2  9  1  6
 -5.2492625231602e-05  2 19  1  6
   0.0093065886757611  2  2  1  7
   -0.038189465593871  2  4  1  7
   -0.014545277311218  2  6  1  7
    0.028961049960147  2  8  1  7
  -1.769755929035e-06  2 10  1  7
  0.00022995659034706  2 20  1  7
  -0.0092145520245964  2  1  1  8
    0.037960321720985  2  3  1  8
   -0.014548990275979  2  5  1  8
    0.028960889075543  2  7  1  8
 -5.7244021942542e-06  2  9  1  8
  0.00020815887395032  2 19  1  8
  -0.0011141064342929  2  2  1  9
  0.00049416805556213  2  4  1  9
   2.539859360696e-05  2  6  1  9
 -1.2580772572174e-05  2  8  1  9
   -0.029540615879187  2 10  1  9
  0.00032832661765325  2 20  1  9
   0.0025324661185064  2  1  1 10
 -0.00046113010367621  2  3  1 10
  4.6692736985063e-05  2  5  1 10
  9.1221707275732e-06  2  7  1 10
   -0.029377176242284  2  9  1 10
  0.00031470214028298  2 19  1 10
   -0.029415692406462  2 13  1 11
  0.00026470098318879  2 17  1 11
   -0.029415692406461  2 14  1 12
  0.00026470098323793  2 18  1 12
   -0.029283902744619  2 11  1 13
  0.00024844679780608  2 15  1 13
   -0.029283902744619  2 12  1 14
  0.00024844679785345  2 16  1 14
  0.00014060162288362  2 13  1 15
    0.029180408742636  2 17  1 15
  0.00014060162293102  2 14  1 16
    0.029180408742636  2 18  1 16
  0.00016137373212712  2 11  1 17
    0.029088205504588  2 15  1 17
  0.00016137373217593  2 12  1 18
    0.029088205504587  2 16  1 18
   0.0012376670037528  2  2  1 19
   0.0018683984172352  2  4  1 19
 -6.4215384308664e-05  2  6  1 19
  0.00020045065608886  2  8  1 19
  0.00010826388279517  2 10  1 19
    0.029152066772808  2 20  1 19
  -0.0013499855519546  2  1  1 20
 -0.00044747926220514  2  3  1 20
 -5.6576273651753e-05  2  5  1 20
  0.00021730125828817  2  7  1 20
  0.00013046538313612  2  9  1 20
    0.028879438974663  2 19  1 20
     0.13179752396048  2  1  2  1
    0.010260367876912  2  3  2  1
    0.038667344171348  2  5  2  1
   0.0091562465775925  2  7  2  1
  -0.0025391701388163  2  9  2  1
   -0.001308711789975  2 19  2  1
     0.19005057646385  2  2  2  2
   0.0067709567928469  2  4  2  2
   -0.038719825298969  2  6  2  2
  -0.0082994622292758  2  8  2  2
   0.0011519520628963  2 10  2  2
   0.0012347027806103  2 20  2  2
    0.010260367876912  2  1  2  3
     0.10733652818375  2  3  2  3
  -0.0083163940290818  2  5  2  3
    0.038554877247157  2  7  2  3
  0.00048559396459122  2  9  2  3
 -0.00044785680801668  2 19  2  3
   0.0067709567928469  2  2  2  4
      0.1155070176183  2  4  2  4
   0.0093241318987384  2  6  2  4
    -0.03815361650794  2  8  2  4
 -0.00043121066462473  2 10  2  4
   0.0018560966024772  2 20  2  4
    0.038667344171348  2  1  2  5
  -0.0083163940290818  2  3  2  5
    0.032551162488822  2  5  2  5
   0.0003763700807669  2  7  2  5
 -4.7181064698526e-05  2  9  2  5
  -5.597320626179e-05  2 19  2  5
   -0.038719825298969  2  2  2  6
   0.0093241318987384  2  4  2  6
      0.0328246340404  2  6  2  6
 -0.00037444194664935  2  8  2  6
 -3.0961533050334e-05  2 10  2  6
 -5.8262650440243e-05  2 20  2  6
   0.0091562465775924  2  1  2  7
    0.038554877247157  2  3  2  7
  0.00037637008076689  2  5  2  7
    0.032687523210053  2  7  2  7
  -6.379701691586e-06  2  9  2  7
  0.00021762547241576  2 19  2  7
  -0.0082994622292758  2  2  2  8
    -0.03815361650794  2  4  2  8
 -0.00037444194664935  2  6  2  8
    0.032198591668578  2  8  2  8
  3.6131232808389e-06  2 10  2  8
  0.00020955666257688  2 20  2  8
  -0.0025391701388163  2  1  2  9
  0.00048559396459122  2  3  2  9
 -4.7181064698525e-05  2  5  2  9
 -6.3797016915861e-06  2  7  2  9
    0.029419265421929  2  9  2  9
 -0.00049518661688252  2 19  2  9
   0.0011519520628963  2  2  2 10
 -0.00043121066462473  2  4  2 10
 -3.0961533050334e-05  2  6  2 10
  3.6131232808388e-06  2  8  2 10
    0.029585249171352  2 10  2 10
  0.00029283576460355  2 20  2 10
    0.029340479697313  2 11  2 11
 -0.00044525213455976  2 15  2 11
    0.029340479697316  2 12  2 12
 -0.00044525213455907  2 16  2 12
    0.029476450354117  2 13  2 13
   0.0003392827124377  2 17  2 13
     0.02947645035412  2 14  2 14
  0.00033928271243639  2 18  2 14
 -0.00044525213455977  2 11  2 15
     0.02909557935242  2 15  2 15
 -0.00044525213455907  2 12  2 16
    0.029095579352418  2 16  2 16
   0.0003392827124377  2 13  2 17
    0.029180783302838  2 17  2 17
  0.00033928271243638  2 14  2 18
    0.029180783302836  2 18  2 18
   -0.001308711789975  2  1  2 19
 -0.00044785680801668  2  3  2 19
  -5.597320626179e-05  2  5  2 19
  0.00021762547241576  2  7  2 19
 -0.00049518661688251  2  9  2 19
    0.028902380092179  2 19  2 19
   0.0012347027806103  2  2  2 20
   0.0018560966024772  2  4  2 20
 -5.8262650440243e-05  2  6  2 20
  0.00020955666257688  2  8  2 20
  0.00029283576460355  2 10  2 20
    0.029166190504946  2 20  2 20
  -0.0098963701642955  3  1  1  1
     0.19024018687344  3  3  1  1
  -0.0093199123101149  3  5  1  1
    0.038336855844846  3  7  1  1
  -0.0014335662375171  3  9  1  1
  0.00098019840416536  3 19  1  1
    0.010260367876912  3  2  1  2
     -0.1320423355785  3  4  1  2
  -0.0095842452845796  3  6  1  2
    0.038097721446002  3  8  1  2
   -0.001283701335462  3 10  1  2
   0.0024778481373926  3 20  1  2
     0.11524524717159  3  1  1  3
  -0.0064991460102496  3  3  1  3
    0.038805395051935  3  5  1  3
   0.0094674873358232  3  7  1  3
   0.0028749948167128  3  9  1  3
  0.00053827904174749  3 19  1  3
    -0.10703936800943  3  2  1  4
   0.0064036526805069  3  4  1  4
    0.038694134328509  3  6  1  4
   0.0093273084599254  3  8  1  4
   0.0013763979629524  3 10  1  4
    0.000508865536873  3 20  1  4
   -0.009235183720444  3  1  1  5
    0.038588639176447  3  3  1  5
   -0.014532985224721  3  5  1  5
    0.029201198312758  3  7  1  5
 -2.2915483831766e-05  3  9  1  5
  -8.461326518154e-06  3 19  1  5
  -0.0094683762646392  3  2  1  6
     0.03845378302504  3  4  1  6
    0.014722821897652  3  6  1  6
   -0.029041026611475  3  8  1  6
  2.7663838897124e-05  3 10  1  6
  2.3117902959034e-05  3 20  1  6
     0.03811408249825  3  1  1  7
   0.0094301409024026  3  3  1  7
    0.029200665707315  3  5  1  7
    0.014537271031458  3  7  1  7
  0.00011834095314063  3  9  1  7
 -9.5065971870507e-06  3 19  1  7
    0.037960321720985  3  2  1  8
   0.0092561674720592  3  4  1  8
   -0.029040570682867  3  6  1  8
   -0.014500343706931  3  8  1  8
 -0.00013349807876249  3 10  1  8
  2.1171619685414e-05  3 20  1  8
 -0.00051319002748688  3  1  1  9
 -0.00083471358806247  3  3  1  9
  1.0288735227675e-05  3  5  1  9
 -3.1246266779072e-05  3  7  1  9
  0.00064932373001397  3  9  1  9
   -0.029563761274843  3 19  1  9
 -0.00046113010367621  3  2  1 10
  -0.0022706404965234  3  4  1 10
  -1.425785792111e-05  3  6  1 10
  1.1921128347508e-05  3  8  1 10
   0.0012960802485615  3 10  1 10
    0.029378833756535  3 20  1 10
   0.0017922672685431  3 11  1 11
   -0.029392648622704  3 15  1 11
   0.0017922672687064  3 12  1 12
   -0.029392648622694  3 16  1 12
   0.0022955755592566  3 13  1 13
    0.029225735962414  3 17  1 13
   0.0022955755595151  3 14  1 14
    0.029225735962394  3 18  1 14
   -0.029149375622012  3 11  1 15
  -0.0018399036502348  3 15  1 15
   -0.029149375622002  3 12  1 16
  -0.0018399036503982  3 16  1 16
    0.029036523498455  3 13  1 17
  -0.0021351341927462  3 17  1 17
    0.029036523498435  3 14  1 18
  -0.0021351341930048  3 18  1 18
  -0.0018837113530651  3  1  1 19
   0.0012585889672929  3  3  1 19
  0.00014080841519902  3  5  1 19
  2.5924710318138e-05  3  7  1 19
   -0.029183647034051  3  9  1 19
 -0.00080250616883955  3 19  1 19
 -0.00044747926220514  3  2  1 20
   0.0013444848915379  3  4  1 20
 -0.00013303071293953  3  6  1 20
 -2.4259539761811e-05  3  8  1 20
    0.028891203948187  3 10  1 20
  -0.0010323051657034  3 20  1 20
    0.010260367876912  3  2  2  1
     -0.1320423355785  3  4  2  1
  -0.0095842452845796  3  6  2  1
    0.038097721446002  3  8  2  1
   -0.001283701335462  3 10  2  1
   0.0024778481373926  3 20  2  1
  -0.0066374640618106  3  1  2  2
     0.19017948406218  3  3  2  2
  -0.0082939463614354  3  5  2  2
    0.038684344656692  3  7  2  2
  -0.0013363034904488  3  9  2  2
   0.0010113302553692  3 19  2  2
     0.10733652818375  3  2  2  3
   -0.010286962403095  3  4  2  3
   -0.038973244123333  3  6  2  3
  -0.0082016754103435  3  8  2  3
  -0.0014142930780901  3 10  2  3
 -0.00043977256057105  3 20  2  3
    -0.11537572673625  3  1  2  4
   0.0066322147259281  3  3  2  4
   -0.038924507386717  3  5  2  4
  -0.0093964803421792  3  7  2  4
  -0.0028615901506503  3  9  2  4
 -0.00051926637497434  3 19  2  4
  -0.0083163940290818  3  2  2  5
   -0.038860292974466  3  4  2  5
 -0.00050097168210767  3  6  2  5
    0.032404627956806  3  8  2  5
  2.4154087667763e-05  3 10  2  5
 -8.5988052614895e-06  3 20  2  5
  -0.0093947152142952  3  1  2  6
   -0.038843427256254  3  3  2  6
 -0.00050105205053622  3  5  2  6
   -0.032840909060261  3  7  2  6
 -1.9814472562722e-05  3  9  2  6
  3.0219411094206e-05  3 19  2  6
    0.038554877247157  3  2  2  7
  -0.0092087173227614  3  4  2  7
   -0.032840959793501  3  6  2  7
  0.00035804188866611  3  8  2  7
 -0.00012751291253403  3 10  2  7
 -5.0848559791201e-06  3 20  2  7
    0.038035520854496  3  1  2  8
  -0.0082217059190855  3  3  2  8
    0.032404257881609  3  5  2  8
  0.00035809347687083  3  7  2  8
  0.00014110131667757  3  9  2  8
  2.5149237589045e-05  3 19  2  8
  0.00048559396459122  3  2  2  9
   0.0022770030143139  3  4  2  9
  1.0947305131244e-05  3  6  2  9
 -1.2435082251655e-05  3  8  2  9
  -0.0014782717294006  3 10  2  9
   -0.029415283317704  3 20  2  9
  0.00044998422218206  3  1  2 10
  0.00087260329609508  3  3  2 10
 -2.0660660166147e-05  3  5  2 10
  3.5963136191486e-05  3  7  2 10
  -0.0012727854546684  3  9  2 10
    0.029588978850615  3 19  2 10
  -0.0024960693723989  3 13  2 11
   -0.029268873909408  3 17  2 11
  -0.0024960693726099  3 14  2 12
   -0.029268873909393  3 18  2 12
  -0.0023996591735218  3 11  2 13
       0.029412329387  3 15  2 13
  -0.0023996591737333  3 12  2 14
    0.029412329386986  3 16  2 14
    0.029086297647034  3 13  2 15
  -0.0015298579437577  3 17  2 15
     0.02908629764702  3 14  2 16
  -0.0015298579439684  3 18  2 16
   -0.029163636725318  3 11  2 17
  -0.0016415184384734  3 15  2 17
   -0.029163636725303  3 12  2 18
  -0.0016415184386853  3 16  2 18
 -0.00044785680801668  3  2  2 19
   0.0013087963784437  3  4  2 19
 -0.00013342380543182  3  6  2 19
 -2.4269091929322e-05  3  8  2 19
    0.028934959009562  3 10  2 19
 -0.00040710312928865  3 20  2 19
  -0.0018713377304494  3  1  2 20
   0.0012538735286307  3  3  2 20
  0.00014974721611226  3  5  2 20
  2.0016585830088e-05  3  7  2 20
   -0.029203793320555  3  9  2 20
 -0.00061826404806167  3 19  2 20
     0.11524524717159  3  1  3  1
  -0.0064991460102496  3  3  3  1
    0.038805395051935  3  5  3  1
   0.0094674873358232  3  7  3  1
   0.0028749948167128  3  9  3  1
  0.00053827904174749  3 19  3  1
     0.10733652818375  3  2  3  2
   -0.010286962403095  3  4  3  2
   -0.038973244123333  3  6  3  2
  -0.0082016754103435  3  8  3  2
  -0.0014142930780901  3 10  3  2
 -0.00043977256057105  3 20  3  2
  -0.0064991460102496  3  1  3  3
     0.19031231516866  3  3  3  3
  -0.0082142574968263  3  5  3  3
    0.038806830624058  3  7  3  3
      -0.001344956864  3  9  3  3
  0.00073110831609095  3 19  3  3
   -0.010286962403095  3  2  3  4
     0.13229110088702  3  4  3  4
   0.0096375599454619  3  6  3  4
   -0.038289264679819  3  8  3  4
   0.0012927019053503  3 10  3  4
  -0.0022152250393625  3 20  3  4
    0.038805395051935  3  1  3  5
  -0.0082142574968263  3  3  3  5
    0.032616575247156  3  5  3  5
  0.00048433387611244  3  7  3  5
  0.00020850445976877  3  9  3  5
  2.8053676576447e-06  3 19  3  5
   -0.038973244123333  3  2  3  6
   0.0096375599454619  3  4  3  6
    0.032997641002238  3  6  3  6
 -0.00048176809228809  3  8  3  6
  0.00021520618458072  3 10  3  6
 -1.8988887595714e-06  3 20  3  6
   0.0094674873358232  3  1  3  7
    0.038806830624058  3  3  3  7
  0.00048433387611243  3  5  3  7
    0.032859367502393  3  7  3  7
  5.8517800323513e-05  3  9  3  7
 -2.4033245551224e-05  3 19  3  7
  -0.0082016754103435  3  2  3  8
   -0.038289264679819  3  4  3  8
 -0.00048176809228809  3  6  3  8
     0.03226244385809  3  8  3  8
   5.355252546156e-05  3 10  3  8
 -4.3857738215019e-05  3 20  3  8
   0.0028749948167128  3  1  3  9
      -0.001344956864  3  3  3  9
  0.00020850445976877  3  5  3  9
  5.8517800323513e-05  3  7  3  9
     0.02928323898012  3  9  3  9
 -0.00036064773323506  3 19  3  9
  -0.0014142930780901  3  2  3 10
   0.0012927019053503  3  4  3 10
  0.00021520618458072  3  6  3 10
  5.3552525461561e-05  3  8  3 10
    0.029009181431783  3 10  3 10
  0.00057503677721904  3 20  3 10
    0.029290781853037  3 11  3 11
 -0.00041714537038196  3 15  3 11
     0.02929078185304  3 12  3 12
 -0.00041714537038248  3 16  3 12
    0.029220634384179  3 13  3 13
  0.00051869245849541  3 17  3 13
    0.029220634384184  3 14  3 14
  0.00051869245849589  3 18  3 14
 -0.00041714537038196  3 11  3 15
    0.029482939914584  3 15  3 15
 -0.00041714537038248  3 12  3 16
    0.029482939914582  3 16  3 16
   0.0005186924584954  3 13  3 17
    0.029331620661376  3 17  3 17
  0.00051869245849589  3 14  3 18
    0.029331620661372  3 18  3 18
  0.00053827904174749  3  1  3 19
  0.00073110831609095  3  3  3 19
  2.8053676576449e-06  3  5  3 19
 -2.4033245551224e-05  3  7  3 19
 -0.00036064773323506  3  9  3 19
    0.029621683255936  3 19  3 19
 -0.00043977256057105  3  2  3 20
  -0.0022152250393625  3  4  3 20
 -1.8988887595714e-06  3  6  3 20
 -4.3857738215019e-05  3  8  3 20
  0.00057503677721903  3 10  3 20
    0.029439967930309  3 20  3 20
    0.010032912141165  4  2  1  1
     0.19067820139887  4  4  1  1
   0.0082859527816953  4  6  1  1
   -0.038548453274764  4  8  1  1
  -0.0014153752961349  4 10  1  1
 -0.00095995293672098  4 20  1  1
  -0.0063843228776228  4  1  1  2
     -0.1320423355785  4  3  1  2
   0.0095424912134635  4  5  1  2
   -0.038538564637693  4  7  1  2
  -0.0013545345794448  4  9  1  2
  -0.0025044557357422  4 19  1  2
    -0.11537572673625  4  2  1  3
   -0.010019045889502  4  4  1  3
    0.038799628346233  4  6  1  3
   0.0094440743809748  4  8  1  3
   0.0028701616955911  4 10  1  3
 -0.00057908414491046  4 20  1  3
     0.10685620076745  4  1  1  4
   0.0064036526805069  4  3  1  4
    0.039295196369265  4  5  1  4
   0.0081795160692364  4  7  1  4
   0.0013552784527185  4  9  1  4
 -0.00052177361019703  4 19  1  4
   0.0093533933755762  4  2  1  5
    0.038987620496107  4  4  1  5
 -0.00036315084796482  4  6  1  5
   -0.032841499657104  4  8  1  5
 -1.3201288465078e-05  4 10  1  5
 -1.5130602536499e-06  4 20  1  5
   0.0083397448841265  4  1  1  6
     0.03845378302504  4  3  1  6
 -0.00036290148149781  4  5  1  6
    0.032415669461505  4  7  1  6
  2.7388311787553e-05  4  9  1  6
   -2.38380097197e-05  4 19  1  6
   -0.038189465593871  4  2  1  7
   0.0082325818193459  4  4  1  7
    0.032415160317259  4  6  1  7
  0.00049964567497163  4  8  1  7
  0.00011295163632983  4 10  1  7
  1.7713159303328e-05  4 20  1  7
   -0.038236170334852  4  1  1  8
   0.0092561674720592  4  3  1  8
   -0.032839702750874  4  5  1  8
  0.00049942444164451  4  7  1  8
 -0.00013413462484031  4  9  1  8
 -1.7338438088213e-05  4 19  1  8
  0.00049416805556213  4  2  1  9
 -0.00083534661872181  4  4  1  9
 -2.2061921320027e-05  4  6  1  9
  3.4502931990825e-06  4  8  1  9
  0.00041019898366649  4 10  1  9
    0.029595537397493  4 20  1  9
  0.00053184130465937  4  1  1 10
  -0.0022706404965234  4  3  1 10
   1.424429058165e-05  4  5  1 10
 -3.0007422452978e-05  4  7  1 10
  0.00061522708387153  4  9  1 10
    -0.02941564331571  4 19  1 10
   0.0015380371809526  4 13  1 11
    0.029416406550022  4 17  1 11
   0.0015380371811645  4 14  1 12
    0.029416406550008  4 18  1 12
   0.0016345458355517  4 11  1 13
   -0.029269904005156  4 15  1 13
   0.0016345458357625  4 12  1 14
   -0.029269904005141  4 16  1 14
   -0.029166265701809  4 13  1 15
   0.0025033003454291  4 17  1 15
   -0.029166265701793  4 14  1 16
   0.0025033003456406  4 18  1 16
    0.029085863196733  4 11  1 17
   0.0023911838785584  4 15  1 17
    0.029085863196719  4 12  1 18
   0.0023911838787695  4 16  1 18
   0.0018683984172352  4  2  1 19
   0.0012987605621189  4  4  1 19
   0.0001194778468091  4  6  1 19
  1.4635655075046e-05  4  8  1 19
   -0.029207123219521  4 10  1 19
   0.0014801557712097  4 20  1 19
  0.00040779954089979  4  1  1 20
   0.0013444848915379  4  3  1 20
  -0.0001435916710461  4  5  1 20
 -2.6596137359655e-05  4  7  1 20
    0.028932281848849  4  9  1 20
   0.0012684816232016  4 19  1 20
  -0.0063843228776228  4  1  2  1
     -0.1320423355785  4  3  2  1
   0.0095424912134635  4  5  2  1
   -0.038538564637693  4  7  2  1
  -0.0013545345794448  4  9  2  1
  -0.0025044557357422  4 19  2  1
   0.0067709567928469  4  2  2  2
     0.19051863723295  4  4  2  2
   0.0093540836127001  4  6  2  2
   -0.038385299526586  4  8  2  2
  -0.0013180866919131  4 10  2  2
 -0.00099265768131339  4 20  2  2
    -0.10703936800943  4  1  2  3
   -0.010286962403095  4  3  2  3
   -0.039009676833356  4  5  2  3
  -0.0093163776256772  4  7  2  3
  -0.0013951684670721  4  9  2  3
  0.00045190313632878  4 19  2  3
      0.1155070176183  4  2  2  4
    0.010156798159921  4  4  2  4
   -0.038875152211774  4  6  2  4
   -0.009562176125389  4  8  2  4
  -0.0028565574976117  4 10  2  4
  0.00055967560583889  4 20  2  4
   0.0094587832300776  4  1  2  5
   -0.038860292974466  4  3  2  5
    0.014700314158549  4  5  2  5
   -0.029306432259031  4  7  2  5
  2.4089835880541e-05  4  9  2  5
  7.3427751008624e-06  4 19  2  5
   0.0093241318987384  4  2  2  6
   -0.038645337103518  4  4  2  6
   -0.014661390726662  4  6  2  6
     0.02914570373035  4  8  2  6
 -2.5867395232728e-05  4 10  2  6
 -2.5448200143679e-05  4 20  2  6
   -0.038288345868828  4  1  2  7
  -0.0092087173227614  4  3  2  7
   -0.029305971519307  4  5  2  7
   -0.014475969548513  4  7  2  7
 -0.00012758681060316  4  9  2  7
  8.9911265176281e-06  4 19  2  7
    -0.03815361650794  4  2  2  8
  -0.0094635048020101  4  4  2  8
    0.029145098556353  4  6  2  8
    0.014665760462954  4  8  2  8
  0.00013231432801264  4 10  2  8
 -1.4115507277775e-05  4 20  2  8
 -0.00055649669202117  4  1  2  9
   0.0022770030143139  4  3  2  9
 -1.7522103077065e-05  4  5  2  9
  2.9075277421381e-05  4  7  2  9
 -0.00079666924782716  4  9  2  9
    0.029450687229772  4 19  2  9
 -0.00043121066462473  4  2  2 10
   0.0008748464061896  4  4  2 10
  1.4462680820169e-05  4  6  2 10
 -1.3019966467075e-05  4  8  2 10
  -0.0010338075569317  4 10  2 10
   -0.029606360133809  4 20  2 10
  -0.0018340653836162  4 11  2 11
    0.029311406826434  4 15  2 11
  -0.0018340653837792  4 12  2 12
    0.029311406826424  4 16  2 12
  -0.0021452734667671  4 13  2 13
   -0.029422396989837  4 17  2 13
  -0.0021452734670272  4 14  2 14
   -0.029422396989818  4 18  2 14
    0.029121953278699  4 11  2 15
   0.0017850185971465  4 15  2 15
    0.029121953278689  4 12  2 16
   0.0017850185973096  4 16  2 16
   -0.029178817045881  4 13  2 17
    0.002304810270865  4 17  2 17
   -0.029178817045861  4 14  2 18
    0.002304810271125  4 18  2 18
   0.0004093113145764  4  1  2 19
   0.0013087963784437  4  3  2 19
  -0.0001435878118016  4  5  2 19
 -2.6978145196677e-05  4  7  2 19
    0.028961568118876  4  9  2 19
  0.00064263952351269  4 19  2 19
   0.0018560966024772  4  2  2 20
   0.0012937297180322  4  4  2 20
  0.00012502884761594  4  6  2 20
  2.4238030793793e-05  4  8  2 20
   -0.029225799362189  4 10  2 20
   0.0012961009472258  4 20  2 20
    -0.11537572673625  4  2  3  1
   -0.010019045889502  4  4  3  1
    0.038799628346233  4  6  3  1
   0.0094440743809748  4  8  3  1
   0.0028701616955911  4 10  3  1
 -0.00057908414491046  4 20  3  1
    -0.10703936800943  4  1  3  2
   -0.010286962403095  4  3  3  2
   -0.039009676833356  4  5  3  2
  -0.0093163776256772  4  7  3  2
  -0.0013951684670721  4  9  3  2
  0.00045190313632878  4 19  3  2
   0.0066322147259281  4  2  3  3
     0.19064702773232  4  4  3  3
   0.0094779108784416  4  6  3  3
   -0.038458780528175  4  8  3  3
  -0.0013289951835045  4 10  3  3
 -0.00071178895799969  4 20  3  3
   0.0064036526805069  4  1  3  4
     0.13229110088702  4  3  3  4
  -0.0095840541273625  4  5  3  4
    0.038733403427547  4  7  3  4
   0.0013574597722073  4  9  3  4
   0.0022414934021154  4 19  3  4
   -0.038924507386717  4  2  3  5
  -0.0094796910647873  4  4  3  5
    0.029388929923686  4  6  3  5
    0.014649732454617  4  8  3  5
  0.00019956860535077  4 10  3  5
  6.8153467789338e-06  4 20  3  5
    0.038694134328509  4  1  3  6
   0.0096375599454619  4  3  3  6
    0.029388745868647  4  5  3  6
    0.014654596956301  4  7  3  6
  0.00021548884283924  4  9  3  6
 -1.3376956501049e-06  4 19  3  6
  -0.0093964803421792  4  2  3  7
    0.038607028568895  4  4  3  7
    0.014654855535262  4  6  3  7
   -0.029169284274011  4  8  3  7
  6.4608894623104e-05  4 10  3  7
  1.8399326828758e-05  4 20  3  7
   0.0093273084599254  4  1  3  8
   -0.038289264679819  4  3  3  8
    0.014648929648274  4  5  3  8
   -0.029169209538863  4  7  3  8
  5.4441357190665e-05  4  9  3  8
   4.303297930434e-05  4 19  3  8
  -0.0028615901506503  4  2  3  9
  -0.0014160623194748  4  4  3  9
  0.00022874511418662  4  6  3  9
  6.9922223535615e-05  4  8  3  9
    0.029297253371104  4 10  3  9
 -0.00031722733350329  4 20  3  9
   0.0013763979629524  4  1  3 10
   0.0012927019053503  4  3  3 10
   0.0002082114785116  4  5  3 10
  5.1894375051721e-05  4  7  3 10
    0.029012950703725  4  9  3 10
 -0.00034069926474347  4 19  3 10
    0.029288152024083  4 13  3 11
 -0.00024451160037278  4 17  3 11
    0.029288152024082  4 14  3 12
 -0.00024451160042036  4 18  3 12
    0.029209950969585  4 11  3 13
 -0.00026686498013389  4 15  3 13
    0.029209950969585  4 12  3 14
 -0.00026686498018281  4 16  3 14
  -0.0001620890210704  4 13  3 15
   -0.029538003426126  4 17  3 15
 -0.00016208902111976  4 14  3 16
   -0.029538003426126  4 18  3 16
 -0.00014479544375734  4 11  3 17
   -0.029391405503128  4 15  3 17
 -0.00014479544380497  4 12  3 18
   -0.029391405503127  4 16  3 18
 -0.00051926637497434  4  2  3 19
  0.00073097261039633  4  4  3 19
  1.0012661084374e-05  4  6  3 19
  5.2300400667714e-05  4  8  3 19
 -0.00012090604639296  4 10  3 19
   -0.029660226522852  4 20  3 19
    0.000508865536873  4  1  3 20
  -0.0022152250393625  4  3  3 20
 -4.8795030809105e-07  4  5  3 20
  2.5210703910849e-05  4  7  3 20
 -0.00010765130789833  4  9  3 20
   -0.029482720980835  4 19  3 20
     0.10685620076745  4  1  4  1
   0.0064036526805069  4  3  4  1
    0.039295196369265  4  5  4  1
   0.0081795160692364  4  7  4  1
   0.0013552784527185  4  9  4  1
 -0.00052177361019703  4 19  4  1
      0.1155070176183  4  2  4  2
    0.010156798159921  4  4  4  2
   -0.038875152211774  4  6  4  2
   -0.009562176125389  4  8  4  2
  -0.0028565574976117  4 10  4  2
  0.00055967560583889  4 20  4  2
   0.0064036526805069  4  1  4  3
     0.13229110088702  4  3  4  3
  -0.0095840541273625  4  5  4  3
    0.038733403427547  4  7  4  3
   0.0013574597722073  4  9  4  3
   0.0022414934021154  4 19  4  3
    0.010156798159921  4  2  4  4
     0.19108998391567  4  4  4  4
   0.0082600703819842  4  6  4  4
   -0.038863794958587  4  8  4  4
  -0.0013997830405574  4 10  4  4
 -0.00071084745580587  4 20  4  4
    0.039295196369265  4  1  4  5
  -0.0095840541273625  4  3  4  5
    0.033225179844314  4  5  4  5
 -0.00048489528604387  4  7  4  5
  0.00020827777787238  4  9  4  5
 -3.0371360477645e-06  4 19  4  5
   -0.038875152211774  4  2  4  6
   0.0082600703819843  4  4  4  6
    0.032634882352909  4  6  4  6
  0.00048211536017439  4  8  4  6
  0.00022352944208781  4 10  4  6
  -4.254176285566e-06  4 20  4  6
   0.0081795160692364  4  1  4  7
    0.038733403427547  4  3  4  7
 -0.00048489528604388  4  5  4  7
    0.032501871453288  4  7  4  7
  5.1588782038169e-05  4  9  4  7
 -2.5713063734974e-05  4 19  4  7
   -0.009562176125389  4  2  4  8
   -0.038863794958587  4  4  4  8
  0.00048211536017441  4  6  4  8
    0.032868115330939  4  8  4  8
  6.0575439482749e-05  4 10  4  8
 -4.3443533223471e-05  4 20  4  8
   0.0013552784527185  4  1  4  9
   0.0013574597722073  4  3  4  9
  0.00020827777787238  4  5  4  9
  5.1588782038169e-05  4  7  4  9
    0.029032572679263  4  9  4  9
  0.00034313195346948  4 19  4  9
  -0.0028565574976117  4  2  4 10
  -0.0013997830405574  4  4  4 10
  0.00022352944208781  4  6  4 10
  6.0575439482749e-05  4  8  4 10
    0.029313229460294  4 10  4 10
 -0.00055768641793475  4 20  4 10
    0.029214282409427  4 11  4 11
  0.00039799130235686  4 15  4 11
    0.029214282409425  4 12  4 12
   0.0003979913023562  4 16  4 12
    0.029287735255707  4 13  4 13
 -0.00050007345964314  4 17  4 13
    0.029287735255703  4 14  4 14
 -0.00050007345964173  4 18  4 14
  0.00039799130235686  4 11  4 15
    0.029453508867076  4 15  4 15
  0.00039799130235621  4 12  4 16
    0.029453508867078  4 16  4 16
 -0.00050007345964314  4 13  4 17
    0.029608161962791  4 17  4 17
 -0.00050007345964173  4 14  4 18
    0.029608161962796  4 18  4 18
 -0.00052177361019703  4  1  4 19
   0.0022414934021154  4  3  4 19
 -3.0371360477653e-06  4  5  4 19
 -2.5713063734974e-05  4  7  4 19
  0.00034313195346948  4  9  4 19
    0.029527459498122  4 19  4 19
  0.00055967560583889  4  2  4 20
 -0.00071084745580587  4  4  4 20
 -4.2541762855659e-06  4  6  4 20
 -4.3443533223471e-05  4  8  4 20
 -0.00055768641793475  4 10  4 20