 &FCI NORB=32,NELEC= 16,MS2=  0
  ORBSYM=0,0,0,0,0,0,0,0,0,0,0,0,0,0,0,0,0,0,0,0,0,0,0,0,0,0,0,0,0,0,0,0,
  ISYM=1 UHF=.TRUE.
 &END
      0.0156250000000  1  1  3  3
     -0.0156250000000  1  1  4  4
     -0.0156250000000  2  2  3  3
      0.0156250000000  2  2  4  4
      0.0312500000000  1  3  4  2
      0.0312500000000  2  4  3  1
      0.0156250000000  3  3  5  5
     -0.0156250000000  3  3  6  6
     -0.0156250000000  4  4  5  5
      0.0156250000000  4  4  6  6
      0.0312500000000  3  5  6  4
      0.0312500000000  4  6  5  3
      0.0156250000000  5  5  7  7
     -0.0156250000000  5  5  8  8
     -0.0156250000000  6  6  7  7
      0.0156250000000  6  6  8  8
      0.0312500000000  5  7  8  6
      0.0312500000000  6  8  7  5
      0.0156250000000  7  7  1  1
     -0.0156250000000  7  7  2  2
     -0.0156250000000  8  8  1  1
      0.0156250000000  8  8  2  2
      0.0312500000000  7  1  2  8
      0.0312500000000  8  2  1  7
      0.0156250000000  9  9 11 11
     -0.0156250000000  9  9 12 12
     -0.0156250000000 10 10 11 11
      0.0156250000000 10 10 12 12
      0.0312500000000  9 11 12 10
      0.0312500000000 10 12 11  9
      0.0156250000000 11 11 13 13
     -0.0156250000000 11 11 14 14
     -0.0156250000000 12 12 13 13
      0.0156250000000 12 12 14 14
      0.0312500000000 11 13 14 12
      0.0312500000000 12 14 13 11
      0.0156250000000 13 13 15 15
     -0.0156250000000 13 13 16 16
     -0.0156250000000 14 14 15 15
      0.0156250000000 14 14 16 16
      0.0312500000000 13 15 16 14
      0.0312500000000 14 16 15 13
      0.0156250000000 15 15  9  9
     -0.0156250000000 15 15 10 10
     -0.0156250000000 16 16  9  9
      0.0156250000000 16 16 10 10
      0.0312500000000 15  9 10 16
      0.0312500000000 16 10  9 15
      0.0156250000000 17 17 19 19
     -0.0156250000000 17 17 20 20
     -0.0156250000000 18 18 19 19
      0.0156250000000 18 18 20 20
      0.0312500000000 17 19 20 18
      0.0312500000000 18 20 19 17
      0.0156250000000 19 19 21 21
     -0.0156250000000 19 19 22 22
     -0.0156250000000 20 20 21 21
      0.0156250000000 20 20 22 22
      0.0312500000000 19 21 22 20
      0.0312500000000 20 22 21 19
      0.0156250000000 21 21 23 23
     -0.0156250000000 21 21 24 24
     -0.0156250000000 22 22 23 23
      0.0156250000000 22 22 24 24
      0.0312500000000 21 23 24 22
      0.0312500000000 22 24 23 21
      0.0156250000000 23 23 17 17
     -0.0156250000000 23 23 18 18
     -0.0156250000000 24 24 17 17
      0.0156250000000 24 24 18 18
      0.0312500000000 23 17 18 24
      0.0312500000000 24 18 17 23
      0.0156250000000 25 25 27 27
     -0.0156250000000 25 25 28 28
     -0.0156250000000 26 26 27 27
      0.0156250000000 26 26 28 28
      0.0312500000000 25 27 28 26
      0.0312500000000 26 28 27 25
      0.0156250000000 27 27 29 29
     -0.0156250000000 27 27 30 30
     -0.0156250000000 28 28 29 29
      0.0156250000000 28 28 30 30
      0.0312500000000 27 29 30 28
      0.0312500000000 28 30 29 27
      0.0156250000000 29 29 31 31
     -0.0156250000000 29 29 32 32
     -0.0156250000000 30 30 31 31
      0.0156250000000 30 30 32 32
      0.0312500000000 29 31 32 30
      0.0312500000000 30 32 31 29
      0.0156250000000 31 31 25 25
     -0.0156250000000 31 31 26 26
     -0.0156250000000 32 32 25 25
      0.0156250000000 32 32 26 26
      0.0312500000000 31 25 26 32
      0.0312500000000 32 26 25 31
      0.0156250000000  1  1  9  9
     -0.0156250000000  1  1 10 10
     -0.0156250000000  2  2  9  9
      0.0156250000000  2  2 10 10
      0.0312500000000  1  9 10  2
      0.0312500000000  2 10  9  1
      0.0156250000000  9  9 17 17
     -0.0156250000000  9  9 18 18
     -0.0156250000000 10 10 17 17
      0.0156250000000 10 10 18 18
      0.0312500000000  9 17 18 10
      0.0312500000000 10 18 17  9
      0.0156250000000 17 17 25 25
     -0.0156250000000 17 17 26 26
     -0.0156250000000 18 18 25 25
      0.0156250000000 18 18 26 26
      0.0312500000000 17 25 26 18
      0.0312500000000 18 26 25 17
      0.0156250000000 25 25  1  1
     -0.0156250000000 25 25  2  2
     -0.0156250000000 26 26  1  1
      0.0156250000000 26 26  2  2
      0.0312500000000 25  1  2 26
      0.0312500000000 26  2  1 25
      0.0156250000000  3  3 11 11
     -0.0156250000000  3  3 12 12
     -0.0156250000000  4  4 11 11
      0.0156250000000  4  4 12 12
      0.0312500000000  3 11 12  4
      0.0312500000000  4 12 11  3
      0.0156250000000 11 11 19 19
     -0.0156250000000 11 11 20 20
     -0.0156250000000 12 12 19 19
      0.0156250000000 12 12 20 20
      0.0312500000000 11 19 20 12
      0.0312500000000 12 20 19 11
      0.0156250000000 19 19 27 27
     -0.0156250000000 19 19 28 28
     -0.0156250000000 20 20 27 27
      0.0156250000000 20 20 28 28
      0.0312500000000 19 27 28 20
      0.0312500000000 20 28 27 19
      0.0156250000000 27 27  3  3
     -0.0156250000000 27 27  4  4
     -0.0156250000000 28 28  3  3
      0.0156250000000 28 28  4  4
      0.0312500000000 27  3  4 28
      0.0312500000000 28  4  3 27
      0.0156250000000  5  5 13 13
     -0.0156250000000  5  5 14 14
     -0.0156250000000  6  6 13 13
      0.0156250000000  6  6 14 14
      0.0312500000000  5 13 14  6
      0.0312500000000  6 14 13  5
      0.0156250000000 13 13 21 21
     -0.0156250000000 13 13 22 22
     -0.0156250000000 14 14 21 21
      0.0156250000000 14 14 22 22
      0.0312500000000 13 21 22 14
      0.0312500000000 14 22 21 13
      0.0156250000000 21 21 29 29
     -0.0156250000000 21 21 30 30
     -0.0156250000000 22 22 29 29
      0.0156250000000 22 22 30 30
      0.0312500000000 21 29 30 22
      0.0312500000000 22 30 29 21
      0.0156250000000 29 29  5  5
     -0.0156250000000 29 29  6  6
     -0.0156250000000 30 30  5  5
      0.0156250000000 30 30  6  6
      0.0312500000000 29  5  6 30
      0.0312500000000 30  6  5 29
      0.0156250000000  7  7 15 15
     -0.0156250000000  7  7 16 16
     -0.0156250000000  8  8 15 15
      0.0156250000000  8  8 16 16
      0.0312500000000  7 15 16  8
      0.0312500000000  8 16 15  7
      0.0156250000000 15 15 23 23
     -0.0156250000000 15 15 24 24
     -0.0156250000000 16 16 23 23
      0.0156250000000 16 16 24 24
      0.0312500000000 15 23 24 16
      0.0312500000000 16 24 23 15
      0.0156250000000 23 23 31 31
     -0.0156250000000 23 23 32 32
     -0.0156250000000 24 24 31 31
      0.0156250000000 24 24 32 32
      0.0312500000000 23 31 32 24
      0.0312500000000 24 32 31 23
      0.0156250000000 31 31  7  7
     -0.0156250000000 31 31  8  8
     -0.0156250000000 32 32  7  7
      0.0156250000000 32 32  8  8
      0.0312500000000 31  7  8 32
      0.0312500000000 32  8  7 31
