 &FCI NORB=19 ,NELEC= 9 ,MS2= 1  
  ORBSYM=1,1,1,3,4,1,1,4,1,3,4,3,1,1,2,1,4,3,1,
  ISYM=0 UHF=.FALSE. 
 &END 
   0.474406561986E+01   1   1   1   1
   0.430359987062E+00   1   2   1   1
   0.106285483792E+01   2   2   1   1
  -0.160482010252E+00   1   3   1   1
  -0.989597901090E-01   2   3   1   1
   0.965943544983E+00   3   3   1   1
   0.105931000123E+01   4   4   1   1
   0.108866673199E+01   5   5   1   1
  -0.124270628602E+00   1   6   1   1
  -0.199728816252E+00   2   6   1   1
  -0.141306050010E+00   3   6   1   1
   0.418187640087E+00   6   6   1   1
  -0.774339376517E-01   1   7   1   1
  -0.132070322182E+00   2   7   1   1
  -0.193542050829E+00   3   7   1   1
   0.181087041976E+00   6   7   1   1
   0.602153596817E+00   7   7   1   1
  -0.507591746173E+00   5   8   1   1
   0.948320457522E+00   8   8   1   1
   0.118811699986E+00   1   9   1   1
   0.390750358856E-01   2   9   1   1
  -0.378906428081E+00   3   9   1   1
   0.106778608635E+00   6   9   1   1
   0.145161729408E+00   7   9   1   1
   0.790826181214E+00   9   9   1   1
  -0.510780205130E+00   4  10   1   1
   0.977746064569E+00  10  10   1   1
   0.342327260301E-02   5  11   1   1
  -0.100826053376E-01   8  11   1   1
   0.518910601287E+00  11  11   1   1
   0.302993362716E-02   4  12   1   1
  -0.965980390745E-02  10  12   1   1
   0.512651692212E+00  12  12   1   1
   0.378643591949E+00   1  13   1   1
   0.363293521139E+00   2  13   1   1
  -0.139292459773E+00   3  13   1   1
  -0.152835649488E+00   6  13   1   1
  -0.176962224746E-01   7  13   1   1
   0.105180849356E+00   9  13   1   1
   0.838863196385E+00  13  13   1   1
   0.137301671520E+00   1  14   1   1
   0.146874360830E+00   2  14   1   1
   0.145039695362E+00   3  14   1   1
  -0.150637065334E+00   6  14   1   1
  -0.276955951787E+00   7  14   1   1
  -0.188108753301E+00   9  14   1   1
   0.891662280376E-01  13  14   1   1
   0.805585546107E+00  14  14   1   1
   0.926121834870E+00  15  15   1   1
  -0.162418582642E-01   1  16   1   1
  -0.175311153740E-01   2  16   1   1
  -0.149341089729E-01   3  16   1   1
   0.112565840932E-01   6  16   1   1
   0.180810980271E-01   7  16   1   1
   0.279513089388E-01   9  16   1   1
  -0.135026496639E-01  13  16   1   1
   0.911254962800E-02  14  16   1   1
   0.925072230077E+00  16  16   1   1
   0.154041125903E-02   5  17   1   1
   0.625100406211E-02   8  17   1   1
  -0.158481816301E+00  11  17   1   1
   0.875770689018E+00  17  17   1   1
   0.213883024099E-02   4  18   1   1
   0.648040106221E-02  10  18   1   1
  -0.151195085936E+00  12  18   1   1
   0.881974781268E+00  18  18   1   1
  -0.329138929176E-01   1  19   1   1
  -0.521914435059E-01   2  19   1   1
  -0.107376278399E+00   3  19   1   1
   0.458280292057E-01   6  19   1   1
   0.351779606621E-01   7  19   1   1
   0.196025443604E+00   9  19   1   1
  -0.951949507243E-01  13  19   1   1
   0.431815918635E-01  14  19   1   1
  -0.627073965314E-02  16  19   1   1
   0.903352111010E+00  19  19   1   1
   0.645175122907E-01   1   2   1   2
   0.128863366465E-01   2   2   1   2
  -0.189819514162E-01   1   3   1   2
  -0.949994227051E-02   2   3   1   2
   0.124652906056E-01   3   3   1   2
   0.113076444067E-01   4   4   1   2
   0.121547077652E-01   5   5   1   2
  -0.206397986164E-01   1   6   1   2
  -0.312961277129E-02   2   6   1   2
  -0.149006467900E-02   3   6   1   2
   0.133629224974E-02   6   6   1   2
  -0.146902084467E-01   1   7   1   2
  -0.173418712118E-02   2   7   1   2
  -0.575671614165E-02   3   7   1   2
   0.221457672043E-02   6   7   1   2
   0.230103235439E-02   7   7   1   2
  -0.140575389948E-01   5   8   1   2
   0.161805973877E-01   8   8   1   2
   0.123441915786E-01   1   9   1   2
   0.549799479697E-02   2   9   1   2
  -0.110565218351E-01   3   9   1   2
   0.134335960474E-02   6   9   1   2
   0.505054450486E-02   7   9   1   2
   0.125160814882E-01   9   9   1   2
  -0.139101348844E-01   4  10   1   2
   0.169557330022E-01  10  10   1   2
   0.188031444016E-02   5  11   1   2
  -0.175605059063E-03   8  11   1   2
  -0.180166944936E-02  11  11   1   2
   0.176946461539E-02   4  12   1   2
  -0.131285588131E-03  10  12   1   2
  -0.182923229300E-02  12  12   1   2
   0.555801184533E-01   1  13   1   2
   0.128660178165E-01   2  13   1   2
  -0.882658657577E-02   3  13   1   2
  -0.248658542749E-02   6  13   1   2
  -0.316285432744E-03   7  13   1   2
   0.786142028841E-02   9  13   1   2
   0.122947673554E-01  13  13   1   2
   0.255839686985E-01   1  14   1   2
   0.558411023531E-02   2  14   1   2
   0.784902536504E-02   3  14   1   2
  -0.479207195038E-02   6  14   1   2
  -0.614259361660E-02   7  14   1   2
  -0.826266526815E-02   9  14   1   2
   0.211197366224E-02  13  14   1   2
   0.807151751624E-02  14  14   1   2
   0.172581868160E-02  15  15   1   2
  -0.291443489494E-02   1  16   1   2
  -0.563729804445E-03   2  16   1   2
  -0.601670438345E-03   3  16   1   2
   0.401103637712E-03   6  16   1   2
   0.435163189413E-03   7  16   1   2
   0.706498635458E-03   9  16   1   2
  -0.291465731532E-03  13  16   1   2
  -0.585203131864E-03  14  16   1   2
   0.178032575296E-02  16  16   1   2
  -0.445631069656E-02   5  17   1   2
   0.287614232177E-02   8  17   1   2
  -0.825482032776E-03  11  17   1   2
   0.194391510338E-02  17  17   1   2
  -0.440496232844E-02   4  18   1   2
   0.300172287083E-02  10  18   1   2
  -0.741846712812E-03  12  18   1   2
   0.193761187138E-02  18  18   1   2
  -0.805986912819E-02   1  19   1   2
  -0.607115262634E-03   2  19   1   2
  -0.327856429904E-03   3  19   1   2
   0.333923270393E-03   6  19   1   2
  -0.830360593608E-04   7  19   1   2
   0.235325865679E-02   9  19   1   2
  -0.782052613513E-04  13  19   1   2
  -0.189535347797E-02  14  19   1   2
   0.206508054953E-03  16  19   1   2
   0.337012326325E-02  19  19   1   2
   0.785443542279E+00   2   2   2   2
  -0.180633697452E-01   1   3   2   2
   0.358220211420E-01   2   3   2   2
   0.688650105738E+00   3   3   2   2
   0.729785175460E+00   4   4   2   2
   0.740295213808E+00   5   5   2   2
   0.854192622397E-03   1   6   2   2
  -0.111540861715E+00   2   6   2   2
  -0.681998189209E-01   3   6   2   2
   0.385442276549E+00   6   6   2   2
   0.504825536551E-02   1   7   2   2
  -0.501318024286E-01   2   7   2   2
  -0.346162593730E-01   3   7   2   2
   0.121899988810E+00   6   7   2   2
   0.561595884686E+00   7   7   2   2
  -0.187356287507E+00   5   8   2   2
   0.606080018586E+00   8   8   2   2
   0.167138875134E-01   1   9   2   2
  -0.110764887606E-01   2   9   2   2
  -0.160108845568E+00   3   9   2   2
   0.634362911491E-01   6   9   2   2
   0.358929346994E-01   7   9   2   2
   0.540376209743E+00   9   9   2   2
  -0.190725794168E+00   4  10   2   2
   0.617390497225E+00  10  10   2   2
  -0.337874811393E-01   5  11   2   2
  -0.229595495978E-01   8  11   2   2
   0.563361770351E+00  11  11   2   2
  -0.336203634818E-01   4  12   2   2
  -0.228276933070E-01  10  12   2   2
   0.559529332969E+00  12  12   2   2
   0.132323708849E-01   1  13   2   2
   0.132254272483E+00   2  13   2   2
  -0.274406177082E-01   3  13   2   2
  -0.923356106623E-01   6  13   2   2
   0.405161476382E-02   7  13   2   2
  -0.106149637891E-02   9  13   2   2
   0.604866562995E+00  13  13   2   2
  -0.592366037228E-02   1  14   2   2
   0.159973602045E-01   2  14   2   2
  -0.110813384095E-01   3  14   2   2
  -0.413540268948E-01   6  14   2   2
  -0.132819257614E+00   7  14   2   2
  -0.313914844185E-01   9  14   2   2
   0.378375729089E-01  13  14   2   2
   0.653437741628E+00  14  14   2   2
   0.739420513408E+00  15  15   2   2
   0.508392958942E-03   1  16   2   2
  -0.364563235469E-02   2  16   2   2
  -0.425606637290E-04   3  16   2   2
   0.262365798653E-02   6  16   2   2
   0.103361526624E-01   7  16   2   2
   0.103461878323E-01   9  16   2   2
  -0.620922610949E-02  13  16   2   2
   0.655971037067E-02  14  16   2   2
   0.738718197004E+00  16  16   2   2
   0.479434419986E-01   5  17   2   2
  -0.208253232045E-01   8  17   2   2
  -0.868255425694E-01  11  17   2   2
   0.712799860696E+00  17  17   2   2
   0.482403336693E-01   4  18   2   2
  -0.216927262132E-01  10  18   2   2
  -0.838155021538E-01  12  18   2   2
   0.716526325739E+00  18  18   2   2
   0.556099854232E-02   1  19   2   2
  -0.222230198554E-01   2  19   2   2
  -0.512170006376E-01   3  19   2   2
   0.247783540405E-01   6  19   2   2
   0.456484648221E-01   7  19   2   2
   0.101226252176E+00   9  19   2   2
  -0.651329565853E-01  13  19   2   2
   0.356142119696E-01  14  19   2   2
  -0.479610230514E-02  16  19   2   2
   0.709069449368E+00  19  19   2   2
   0.298639760252E-01   1   3   1   3
  -0.209973319294E-01   2   3   1   3
   0.792549797255E-02   3   3   1   3
  -0.479164235663E-02   4   4   1   3
  -0.507900260680E-02   5   5   1   3
  -0.234714281939E-02   1   6   1   3
   0.110695237279E-01   2   6   1   3
   0.120366870587E-02   3   6   1   3
  -0.718700130464E-02   6   6   1   3
  -0.972409336786E-02   1   7   1   3
   0.109656826902E-01   2   7   1   3
  -0.590241771774E-02   3   7   1   3
  -0.468168627671E-02   6   7   1   3
  -0.806895282458E-02   7   7   1   3
   0.492706313266E-02   5   8   1   3
  -0.575398620583E-02   8   8   1   3
  -0.301592726110E-01   1   9   1   3
   0.117821910531E-01   2   9   1   3
  -0.572433343119E-03   3   9   1   3
  -0.544143333306E-02   6   9   1   3
  -0.775756541117E-03   7   9   1   3
   0.377671461297E-02   9   9   1   3
   0.485847293715E-02   4  10   1   3
  -0.604209207818E-02  10  10   1   3
   0.769436394863E-02   5  11   1   3
  -0.701778002615E-03   8  11   1   3
  -0.780082462119E-02  11  11   1   3
   0.735731425717E-02   4  12   1   3
  -0.657047990478E-03  10  12   1   3
  -0.780659859892E-02  12  12   1   3
  -0.212592300110E-01   1  13   1   3
  -0.842596956923E-02   2  13   1   3
  -0.128597325833E-01   3  13   1   3
   0.758128810359E-02   6  13   1   3
   0.963403522824E-02   7  13   1   3
   0.144236166078E-01   9  13   1   3
  -0.556735079688E-02  13  13   1   3
   0.144382911567E-01   1  14   1   3
  -0.828176527436E-02   2  14   1   3
   0.589086366906E-02   3  14   1   3
   0.277693461504E-02   6  14   1   3
   0.299600889904E-02   7  14   1   3
  -0.917402377502E-03   9  14   1   3
  -0.112776791699E-01  13  14   1   3
  -0.131013578837E-01  14  14   1   3
  -0.310633380621E-03  15  15   1   3
  -0.131870563455E-02   1  16   1   3
   0.104546112331E-02   2  16   1   3
   0.124466979309E-03   3  16   1   3
  -0.628952404193E-03   6  16   1   3
  -0.921467204222E-03   7  16   1   3
  -0.483074671875E-03   9  16   1   3
   0.110823521670E-02  13  16   1   3
   0.159543371474E-02  14  16   1   3
  -0.501797254637E-03  16  16   1   3
  -0.181137187388E-01   5  17   1   3
   0.112709962709E-01   8  17   1   3
  -0.155721463750E-02  11  17   1   3
   0.874055946576E-03  17  17   1   3
  -0.179372020120E-01   4  18   1   3
   0.118155432195E-01  10  18   1   3
  -0.138817476294E-02  12  18   1   3
   0.906490828769E-03  18  18   1   3
  -0.101193937483E-01   1  19   1   3
   0.792241576436E-02   2  19   1   3
   0.162444284251E-01   3  19   1   3
  -0.898945501880E-02   6  19   1   3
  -0.133786742348E-01   7  19   1   3
  -0.112031709315E-01   9  19   1   3
   0.517097048913E-02  13  19   1   3
   0.123176088650E-01  14  19   1   3
  -0.129880940737E-02  16  19   1   3
  -0.561278658780E-02  19  19   1   3
   0.139940112414E+00   2   3   2   3
  -0.503718251027E-01   3   3   2   3
  -0.441571483853E-01   4   4   2   3
  -0.459423714793E-01   5   5   2   3
   0.109689219061E-01   1   6   2   3
  -0.187582061533E-01   2   6   2   3
   0.237238655259E-01   3   6   2   3
   0.471412698775E-01   6   6   2   3
   0.150298513918E-01   1   7   2   3
   0.559507294228E-02   2   7   2   3
   0.875150705531E-01   3   7   2   3
   0.174090497913E-01   6   7   2   3
   0.963434835755E-01   7   7   2   3
   0.274672592251E-01   5   8   2   3
  -0.334368396268E-01   8   8   2   3
   0.218963253786E-01   1   9   2   3
  -0.412153064000E-01   2   9   2   3
   0.226952201390E-02   3   9   2   3
   0.318258002747E-01   6   9   2   3
  -0.782145715847E-02   7   9   2   3
  -0.602434070009E-01   9   9   2   3
   0.282028544478E-01   4  10   2   3
  -0.347375897160E-01  10  10   2   3
  -0.609744074261E-01   5  11   2   3
  -0.259393632104E-01   8  11   2   3
   0.110099843287E+00  11  11   2   3
  -0.606384014681E-01   4  12   2   3
  -0.256915776900E-01  10  12   2   3
   0.111176973921E+00  12  12   2   3
  -0.333251201858E-02   1  13   2   3
  -0.347199322465E-02   2  13   2   3
   0.435734427980E-01   3  13   2   3
  -0.773021574392E-02   6  13   2   3
  -0.228391997601E-01   7  13   2   3
  -0.741762220384E-01   9  13   2   3
  -0.147013486969E-01  13  13   2   3
  -0.208062310710E-01   1  14   2   3
  -0.308451269703E-01   2  14   2   3
  -0.608602650630E-01   3  14   2   3
   0.278212048056E-01   6  14   2   3
   0.215478898461E-01   7  14   2   3
   0.370966704057E-01   9  14   2   3
   0.207995555192E-01  13  14   2   3
   0.951230363185E-01  14  14   2   3
  -0.560122905693E-01  15  15   2   3
   0.218630813822E-02   1  16   2   3
   0.243660927559E-02   2  16   2   3
   0.440838002006E-02   3  16   2   3
  -0.326523171523E-03   6  16   2   3
   0.397563140181E-02   7  16   2   3
  -0.238082400993E-02   9  16   2   3
  -0.135315742036E-02  13  16   2   3
  -0.149318092482E-01  14  16   2   3
  -0.543824874987E-01  16  16   2   3
   0.822973366846E-01   5  17   2   3
  -0.408745747413E-01   8  17   2   3
   0.470314956151E-01  11  17   2   3
  -0.310249773470E-01  17  17   2   3
   0.821607343258E-01   4  18   2   3
  -0.429312580709E-01  10  18   2   3
   0.441971430510E-01  12  18   2   3
  -0.327102455575E-01  18  18   2   3
   0.126204611986E-01   1  19   2   3
  -0.155877258442E-01   2  19   2   3
  -0.463326514454E-01   3  19   2   3
   0.320747397094E-01   6  19   2   3
   0.773690775573E-01   7  19   2   3
   0.109569372531E-01   9  19   2   3
  -0.733606083884E-02  13  19   2   3
  -0.683045538160E-01  14  19   2   3
   0.833307840350E-02  16  19   2   3
  -0.153922200424E-01  19  19   2   3
   0.722359876455E+00   3   3   3   3
   0.665410111355E+00   4   4   3   3
   0.674697156069E+00   5   5   3   3
  -0.781923337394E-02   1   6   3   3
  -0.635957993798E-01   2   6   3   3
  -0.699483395922E-01   3   6   3   3
   0.357216341474E+00   6   6   3   3
  -0.993817544227E-02   1   7   3   3
   0.433718402158E-02   2   7   3   3
  -0.657666815200E-01   3   7   3   3
   0.111366418214E+00   6   7   3   3
   0.535821910675E+00   7   7   3   3
  -0.161593244277E+00   5   8   3   3
   0.565644688516E+00   8   8   3   3
  -0.912385083164E-02   1   9   3   3
   0.115270292934E-01   2   9   3   3
  -0.146501252808E+00   3   9   3   3
   0.387243818761E-01   6   9   3   3
   0.360538313546E-01   7   9   3   3
   0.574291535065E+00   9   9   3   3
  -0.164382516477E+00   4  10   3   3
   0.575212407676E+00  10  10   3   3
   0.321791736638E-02   5  11   3   3
  -0.197815761140E-01   8  11   3   3
   0.516360761065E+00  11  11   3   3
   0.174996854348E-02   4  12   3   3
  -0.198836637048E-01  10  12   3   3
   0.512925342689E+00  12  12   3   3
   0.745341812264E-02   1  13   3   3
   0.116368643779E+00   2  13   3   3
  -0.631272992064E-01   3  13   3   3
  -0.679735687925E-01   6  13   3   3
   0.263137611772E-01   7  13   3   3
   0.564072812213E-01   9  13   3   3
   0.562615121077E+00  13  13   3   3
   0.150641353700E-01   1  14   3   3
  -0.481331601429E-02   2  14   3   3
   0.384596331062E-01   3  14   3   3
  -0.336332513564E-01   6  14   3   3
  -0.119778236315E+00   7  14   3   3
  -0.437318122657E-01   9  14   3   3
   0.128830963958E-02  13  14   3   3
   0.598837081794E+00  14  14   3   3
   0.666158071038E+00  15  15   3   3
  -0.141611856868E-02   1  16   3   3
  -0.128901708142E-02   2  16   3   3
  -0.131494786275E-02   3  16   3   3
   0.144574540223E-02   6  16   3   3
   0.793275342843E-02   7  16   3   3
   0.817035129681E-02   9  16   3   3
  -0.340703468407E-02  13  16   3   3
   0.649493380999E-02  14  16   3   3
   0.665478907923E+00  16  16   3   3
  -0.406004653573E-01   5  17   3   3
   0.123090790095E-01   8  17   3   3
  -0.831716474843E-01  11  17   3   3
   0.690376993002E+00  17  17   3   3
  -0.401200099233E-01   4  18   3   3
   0.139317057281E-01  10  18   3   3
  -0.797360926241E-01  12  18   3   3
   0.693529412972E+00  18  18   3   3
  -0.188330611098E-02   1  19   3   3
  -0.279195850610E-01   2  19   3   3
   0.305501607294E-01   3  19   3   3
  -0.811185161814E-03   6  19   3   3
  -0.107193136707E-02   7  19   3   3
   0.624365479362E-01   9  19   3   3
  -0.604965725150E-01  13  19   3   3
   0.588361138170E-01  14  19   3   3
  -0.410730123562E-02  16  19   3   3
   0.700516672530E+00  19  19   3   3
   0.315722229281E-01   1   4   1   4
  -0.313531013070E-01   2   4   1   4
   0.115315804729E-01   3   4   1   4
   0.665877971853E-02   4   6   1   4
   0.741455271970E-02   4   7   1   4
  -0.718530876225E-02   4   9   1   4
  -0.385707886280E-01   1  10   1   4
   0.193762183997E-01   2  10   1   4
  -0.810598759788E-02   3  10   1   4
  -0.771370386878E-02   6  10   1   4
  -0.402926827373E-02   7  10   1   4
   0.689112414153E-02   9  10   1   4
  -0.374490239777E-04   1  12   1   4
   0.177903830821E-02   2  12   1   4
   0.845351011979E-02   3  12   1   4
  -0.165053817028E-02   6  12   1   4
  -0.905857861165E-03   7  12   1   4
  -0.167134193806E-02   9  12   1   4
  -0.133257584579E-01   4  13   1   4
   0.225268783655E-01  10  13   1   4
   0.664910872809E-03  12  13   1   4
  -0.941258086740E-02   4  14   1   4
   0.890551085408E-02  10  14   1   4
  -0.117392384236E-02  12  14   1   4
  -0.238081379446E-01   5  15   1   4
   0.126665259573E-01   8  15   1   4
  -0.129561393987E-02  11  15   1   4
   0.239913168727E-01   4  16   1   4
  -0.139197286934E-01  10  16   1   4
   0.134352444689E-02  12  16   1   4
  -0.292133249853E-03  15  17   1   4
  -0.378250928687E-03   1  18   1   4
  -0.421531421038E-02   2  18   1   4
  -0.183700515322E-01   3  18   1   4
   0.774135280868E-02   6  18   1   4
   0.115891224038E-01   7  18   1   4
   0.981383272973E-02   9  18   1   4
   0.141648861289E-02  13  18   1   4
  -0.741972447439E-02  14  18   1   4
   0.110657981734E-02  16  18   1   4
  -0.114997031452E-01   4  19   1   4
   0.848794128879E-02  10  19   1   4
  -0.201485473862E-02  12  19   1   4
   0.331751837376E-02  18  19   1   4
   0.134515870498E+00   2   4   2   4
  -0.377311989959E-01   3   4   2   4
  -0.190630416420E-01   4   6   2   4
  -0.350102827373E-01   4   7   2   4
   0.209150069281E-01   4   9   2   4
   0.349726281885E-01   1  10   2   4
  -0.395573683156E-01   2  10   2   4
   0.183452236797E-01   3  10   2   4
   0.364564291771E-01   6  10   2   4
   0.692549146223E-02   7  10   2   4
  -0.163788504465E-01   9  10   2   4
   0.154617241136E-03   1  12   2   4
  -0.215267073819E-01   2  12   2   4
  -0.569388025289E-01   3  12   2   4
   0.373843758830E-02   6  12   2   4
  -0.947972376771E-02   7  12   2   4
  -0.376079182968E-02   9  12   2   4
   0.185624770922E-02   4  13   2   4
  -0.901576020227E-01  10  13   2   4
  -0.586786964502E-02  12  13   2   4
   0.267013408683E-01   4  14   2   4
  -0.294324142086E-01  10  14   2   4
   0.225418990475E-01  12  14   2   4
   0.107192760359E+00   5  15   2   4
  -0.288290171830E-01   8  15   2   4
   0.499358209567E-02  11  15   2   4
  -0.107703617888E+00   4  16   2   4
   0.337003107002E-01  10  16   2   4
  -0.713906797183E-02  12  16   2   4
   0.926557092440E-02  15  17   2   4
  -0.886104069165E-03   1  18   2   4
   0.277057619345E-01   2  18   2   4
   0.732356896545E-01   3  18   2   4
  -0.373573685053E-01   6  18   2   4
  -0.547081674373E-01   7  18   2   4
  -0.241148764574E-01   9  18   2   4
  -0.631710501506E-02  13  18   2   4
   0.142948785263E-01  14  18   2   4
  -0.115523335744E-01  16  18   2   4
   0.454089861794E-01   4  19   2   4
  -0.284534020662E-01  10  19   2   4
   0.510516310431E-02  12  19   2   4
  -0.927458558514E-02  18  19   2   4
   0.463670840245E-01   3   4   3   4
  -0.244479470604E-02   4   6   3   4
  -0.152336138417E-02   4   7   3   4
  -0.134800959098E-01   4   9   3   4
  -0.130114394494E-01   1  10   3   4
   0.149255025921E-01   2  10   3   4
  -0.135181773474E-01   3  10   3   4
  -0.472746654207E-02   6  10   3   4
   0.579574793418E-02   7  10   3   4
   0.278779209325E-01   9  10   3   4
   0.109913085336E-02   1  12   3   4
  -0.221590676811E-01   2  12   3   4
   0.954297589227E-02   3  12   3   4
  -0.599133788319E-02   6  12   3   4
  -0.907701964531E-02   7  12   3   4
   0.164903473123E-02   9  12   3   4
  -0.394602952032E-02   4  13   3   4
   0.301519587087E-01  10  13   3   4
   0.659171377141E-02  12  13   3   4
  -0.785414244640E-02   4  14   3   4
  -0.273585953860E-02  10  14   3   4
   0.543066058961E-02  12  14   3   4
  -0.381592616626E-01   5  15   3   4
   0.112779026920E-01   8  15   3   4
  -0.140576435922E-01  11  15   3   4
   0.377086276972E-01   4  16   3   4
  -0.118962446900E-01  10  16   3   4
   0.129961794481E-01  12  16   3   4
   0.239955130673E-01  15  17   3   4
  -0.435742836259E-02   1  18   3   4
   0.307142785291E-01   2  18   3   4
  -0.449480662329E-01   3  18   3   4
   0.199466629322E-02   6  18   3   4
   0.121920754196E-01   7  18   3   4
   0.901074965533E-02   9  18   3   4
   0.142432525432E-01  13  18   3   4
  -0.118981311544E-01  14  18   3   4
  -0.237356434417E-01  16  18   3   4
  -0.225310784748E-01   4  19   3   4
   0.152387255938E-01  10  19   3   4
  -0.178153876556E-02  12  19   3   4
  -0.109026109401E-01  18  19   3   4
   0.777806331107E+00   4   4   4   4
   0.711656241247E+00   5   5   4   4
  -0.276556026153E-02   1   6   4   4
  -0.951888689308E-01   2   6   4   4
  -0.712191452710E-01   3   6   4   4
   0.350174333925E+00   6   6   4   4
  -0.102374533561E-02   1   7   4   4
  -0.619265717666E-01   2   7   4   4
  -0.753240695081E-01   3   7   4   4
   0.100818738665E+00   6   7   4   4
   0.477765228324E+00   7   7   4   4
  -0.183941372555E+00   5   8   4   4
   0.592120490680E+00   8   8   4   4
   0.353545415388E-02   1   9   4   4
   0.180770566126E-01   2   9   4   4
  -0.145600004500E+00   3   9   4   4
   0.421095693823E-01   6   9   4   4
   0.370197481442E-01   7   9   4   4
   0.542741638145E+00   9   9   4   4
  -0.210350675655E+00   4  10   4   4
   0.657428795262E+00  10  10   4   4
   0.128155804077E-02   5  11   4   4
  -0.573837667661E-02   8  11   4   4
   0.466025410438E+00  11  11   4   4
   0.658765265478E-02   4  12   4   4
  -0.305000136891E-02  10  12   4   4
   0.483989707274E+00  12  12   4   4
   0.989126704801E-02   1  13   4   4
   0.117206586414E+00   2  13   4   4
  -0.465296487648E-01   3  13   4   4
  -0.842507407357E-01   6  13   4   4
   0.158666316512E-01   7  13   4   4
   0.352852408783E-01   9  13   4   4
   0.597860341811E+00  13  13   4   4
   0.179469669752E-02   1  14   4   4
   0.439280328279E-01   2  14   4   4
   0.205125286483E-01   3  14   4   4
  -0.556561849080E-01   6  14   4   4
  -0.130307343165E+00   7  14   4   4
  -0.520723847097E-01   9  14   4   4
   0.311764592862E-01  13  14   4   4
   0.563256636193E+00  14  14   4   4
   0.757328546417E+00  15  15   4   4
   0.463692872937E-02   1  16   4   4
  -0.532378064621E-01   2  16   4   4
   0.157772102244E-01   3  16   4   4
   0.122404261063E-01   6  16   4   4
   0.208004082448E-01   7  16   4   4
   0.365081653290E-03   9  16   4   4
  -0.315186006535E-02  13  16   4   4
  -0.164033196896E-02  14  16   4   4
   0.756768434537E+00  16  16   4   4
   0.647840910325E-02   5  17   4   4
   0.125678248400E-02   8  17   4   4
  -0.954789652216E-01  11  17   4   4
   0.660571949398E+00  17  17   4   4
   0.109194988642E-01   4  18   4   4
   0.293544632583E-02  10  18   4   4
  -0.106716706508E+00  12  18   4   4
   0.721885413222E+00  18  18   4   4
  -0.331698769738E-02   1  19   4   4
   0.808049413864E-02   2  19   4   4
  -0.409988111958E-01   3  19   4   4
   0.254470438844E-02   6  19   4   4
   0.183426239246E-02   7  19   4   4
   0.916013573683E-01   9  19   4   4
  -0.460783246929E-01  13  19   4   4
   0.662825147203E-01  14  19   4   4
  -0.380303608499E-01  16  19   4   4
   0.668770620447E+00  19  19   4   4
   0.337769508119E-01   1   5   1   5
  -0.327842705101E-01   2   5   1   5
   0.121207563196E-01   3   5   1   5
   0.743624312820E-02   5   6   1   5
   0.845789363817E-02   5   7   1   5
  -0.389373849259E-01   1   8   1   5
   0.190196113231E-01   2   8   1   5
  -0.798579004220E-02   3   8   1   5
  -0.792865838123E-02   6   8   1   5
  -0.430123921627E-02   7   8   1   5
  -0.824695229611E-02   5   9   1   5
   0.723306593612E-02   8   9   1   5
   0.371354100056E-04   1  11   1   5
   0.194805770162E-02   2  11   1   5
   0.906523188937E-02   3  11   1   5
  -0.182820549542E-02   6  11   1   5
  -0.114823516441E-02   7  11   1   5
  -0.197102739553E-02   9  11   1   5
  -0.144116285779E-01   5  13   1   5
   0.228019395811E-01   8  13   1   5
   0.591402579931E-03  11  13   1   5
  -0.138576708729E-01   5  14   1   5
   0.109533134952E-01   8  14   1   5
  -0.126305608653E-02  11  14   1   5
  -0.241333384577E-01   4  15   1   5
   0.137767170339E-01  10  15   1   5
  -0.136725016345E-02  12  15   1   5
  -0.237184258169E-01   5  16   1   5
   0.123917225643E-01   8  16   1   5
  -0.132384242315E-02  11  16   1   5
  -0.409113727242E-03   1  17   1   5
  -0.426757652779E-02   2  17   1   5
  -0.187533327922E-01   3  17   1   5
   0.793683315765E-02   6  17   1   5
   0.119132845630E-01   7  17   1   5
   0.100845768988E-01   9  17   1   5
   0.147156881762E-02  13  17   1   5
  -0.771851695179E-02  14  17   1   5
   0.544486285514E-03  16  17   1   5
  -0.297794542009E-03  15  18   1   5
  -0.100063569976E-01   5  19   1   5
   0.728395450387E-02   8  19   1   5
  -0.202695584352E-02  11  19   1   5
   0.341864053128E-02  17  19   1   5
   0.136049918706E+00   2   5   2   5
  -0.387180260383E-01   3   5   2   5
  -0.220394747883E-01   5   6   2   5
  -0.385734076320E-01   5   7   2   5
   0.345739649796E-01   1   8   2   5
  -0.366677220441E-01   2   8   2   5
   0.172240184577E-01   3   8   2   5
   0.362755829315E-01   6   8   2   5
   0.692471818819E-02   7   8   2   5
   0.243597197065E-01   5   9   2   5
  -0.167990966854E-01   8   9   2   5
   0.127460692306E-03   1  11   2   5
  -0.221930339532E-01   2  11   2   5
  -0.580958260010E-01   3  11   2   5
   0.455824572137E-02   6  11   2   5
  -0.796101487624E-02   7  11   2   5
  -0.286301448811E-02   9  11   2   5
   0.531109449492E-02   5  13   2   5
  -0.903143563824E-01   8  13   2   5
  -0.535221377900E-02  11  13   2   5
   0.451561975589E-01   5  14   2   5
  -0.334243142190E-01   8  14   2   5
   0.228909007290E-01  11  14   2   5
   0.106927734608E+00   4  15   2   5
  -0.325377008921E-01  10  15   2   5
   0.549166347960E-02  12  15   2   5
   0.105427018832E+00   5  16   2   5
  -0.274297420625E-01   8  16   2   5
   0.337470600155E-02  11  16   2   5
  -0.872666764192E-03   1  17   2   5
   0.272787890604E-01   2  17   2   5
   0.727435421894E-01   3  17   2   5
  -0.375224792577E-01   6  17   2   5
  -0.552327733177E-01   7  17   2   5
  -0.242841607817E-01   9  17   2   5
  -0.630601078805E-02  13  17   2   5
   0.165229749920E-01  14  17   2   5
   0.687421285648E-02  16  17   2   5
   0.929989237794E-02  15  18   2   5
   0.374241191566E-01   5  19   2   5
  -0.248033575585E-01   8  19   2   5
   0.501835275608E-02  11  19   2   5
  -0.100863526010E-01  17  19   2   5
   0.470686727119E-01   3   5   3   5
  -0.178835701902E-02   5   6   3   5
  -0.650948606336E-03   5   7   3   5
  -0.129275851104E-01   1   8   3   5
   0.139501117482E-01   2   8   3   5
  -0.127203780204E-01   3   8   3   5
  -0.508533461770E-02   6   8   3   5
   0.542819324124E-02   7   8   3   5
  -0.157658705156E-01   5   9   3   5
   0.279045246991E-01   8   9   3   5
   0.122001204456E-02   1  11   3   5
  -0.223600785367E-01   2  11   3   5
   0.108487645375E-01   3  11   3   5
  -0.554686947260E-02   6  11   3   5
  -0.855963533486E-02   7  11   3   5
   0.100433033309E-02   9  11   3   5
  -0.499436317079E-02   5  13   3   5
   0.304754298793E-01   8  13   3   5
   0.593608756260E-02  11  13   3   5
  -0.138072537148E-01   5  14   3   5
  -0.104898125279E-02   8  14   3   5
   0.335346453616E-02  11  14   3   5
  -0.382830520753E-01   4  15   3   5
   0.126805824456E-01  10  15   3   5
  -0.136830756787E-01  12  15   3   5
  -0.384426835652E-01   5  16   3   5
   0.119472856573E-01   8  16   3   5
  -0.146167823879E-01  11  16   3   5
  -0.441503557678E-02   1  17   3   5
   0.305187702745E-01   2  17   3   5
  -0.451738773043E-01   3  17   3   5
   0.175997553717E-02   6  17   3   5
   0.117052926831E-01   7  17   3   5
   0.999933545973E-02   9  17   3   5
   0.146151215539E-01  13  17   3   5
  -0.798773398182E-02  14  17   3   5
   0.244030152745E-01  16  17   3   5
   0.243568076427E-01  15  18   3   5
  -0.200426984004E-01   5  19   3   5
   0.138354316421E-01   8  19   3   5
  -0.266105138923E-03  11  19   3   5
  -0.129618261493E-01  17  19   3   5
   0.391114488446E-01   4   5   4   5
  -0.109913517740E-01   4   8   4   5
  -0.129065616536E-01   5  10   4   5
   0.271029142670E-01   8  10   4   5
   0.245725164956E-02   4  11   4   5
   0.120354818890E-02  10  11   4   5
   0.258549433267E-02   5  12   4   5
   0.143180174786E-02   8  12   4   5
   0.108788058640E-01  11  12   4   5
  -0.515417739044E-02   1  15   4   5
   0.484825998832E-01   2  15   4   5
  -0.189498999240E-01   3  15   4   5
  -0.991632254647E-02   6  15   4   5
  -0.142460554987E-01   7  15   4   5
   0.114555154042E-01   9  15   4   5
  -0.164654797210E-02  13  15   4   5
   0.185385786271E-01  14  15   4   5