 &FCI NORB= 26,NELEC= 10,MS2= 0,
  ORBSYM=1,1,2,3,5,1,1,1,1,2,2,3,3,4,5,5,5,5,5,6,6,6,7,7,7,8,
  ISYM=0,
 /
  0.8050683806226873E+00   1   1   1   1
  0.1410971308143589E+00   2   1   1   1
  0.6738567344627779E-01   2   1   2   1
  0.5641899281154344E+00   2   2   1   1
  0.3207842202965574E-01   2   2   2   1
  0.5612438580331444E+00   2   2   2   2
  0.6245175797413822E+00   3   3   1   1
  0.6108616329080825E-01   3   3   2   1
  0.5010149175026971E+00   3   3   2   2
  0.5690073238629697E+00   3   3   3   3
  0.6245175797413830E+00   4   4   1   1
  0.6108616329080851E-01   4   4   2   1
  0.5010149175026976E+00   4   4   2   2
  0.5233738790412567E+00   4   4   3   3
  0.5690073238629708E+00   4   4   4   4
  0.5174156657537565E+00   5   5   1   1
  0.4594660198069395E-02   5   5   2   1
  0.5385685947761265E+00   5   5   2   2
  0.4901618635487079E+00   5   5   3   3
  0.4901618635487084E+00   5   5   4   4
  0.5343741847230609E+00   5   5   5   5
 -0.8773807690364462E-01   6   1   1   1
 -0.4042001250228138E-01   6   1   2   1
 -0.4539573882287956E-01   6   1   2   2
 -0.3248845319051136E-01   6   1   3   3
 -0.3248845319051152E-01   6   1   4   4
 -0.2279449409423312E-01   6   1   5   5
  0.3949505824110051E-01   6   1   6   1
 -0.1301203221783564E+00   6   2   1   1
 -0.3973896558036813E-01   6   2   2   1
 -0.6428073816712328E-01   6   2   2   2
 -0.8308814694243177E-01   6   2   3   3
 -0.8308814694243194E-01   6   2   4   4
 -0.5073470857429006E-01   6   2   5   5
  0.2408251166517515E-01   6   2   6   1
  0.4764791962206638E-01   6   2   6   2
  0.4692975418945715E+00   6   6   1   1
  0.3882107221460183E-01   6   6   2   1
  0.4130911762947662E+00   6   6   2   2
  0.4161610476298130E+00   6   6   3   3
  0.4161610476298133E+00   6   6   4   4
  0.3968140899216641E+00   6   6   5   5
 -0.2612142384533023E-01   6   6   6   1
 -0.3842775775809601E-01   6   6   6   2
  0.3726933657589523E+00   6   6   6   6
 -0.8277875508865259E-01   7   1   1   1
 -0.2029257577291143E-01   7   1   2   1
 -0.6195329439782017E-01   7   1   2   2
 -0.5148018826644499E-01   7   1   3   3
 -0.5148018826644517E-01   7   1   4   4
 -0.5244425719378878E-01   7   1   5   5
  0.2371950111100908E-01   7   1   6   1
  0.2318729747431795E-01   7   1   6   2
 -0.2649080135869285E-01   7   1   6   6
  0.2468587402927754E-01   7   1   7   1
  0.5073210156292463E-01   7   2   1   1
 -0.1205931730494674E-01   7   2   2   1
  0.9223104022047456E-01   7   2   2   2
  0.5698291134996818E-01   7   2   3   3
  0.5698291134996835E-01   7   2   4   4
  0.9269405230804294E-01   7   2   5   5
 -0.1577898496786870E-02   7   2   6   1
 -0.1940252151091516E-01   7   2   6   2
  0.2564130893086820E-01   7   2   6   6
 -0.2057900079954288E-01   7   2   7   1
  0.5447243585837633E-01   7   2   7   2
  0.6152770325715669E-01   7   6   1   1
  0.2306836398522198E-01   7   6   2   1
 -0.1456168678998345E-02   7   6   2   2
  0.4126158671157509E-01   7   6   3   3
  0.4126158671157507E-01   7   6   4   4
 -0.3363665620831481E-02   7   6   5   5
  0.1569438561638589E-02   7   6   6   1
 -0.2131497637721018E-01   7   6   6   2
  0.1733750886456160E-01   7   6   6   6
  0.3153844339732356E-02   7   6   7   1
 -0.9582449701259640E-02   7   6   7   2
  0.3505291731604059E-01   7   6   7   6
  0.4680357977587131E+00   7   7   1   1
  0.1462665449849243E-01   7   7   2   1
  0.4564846177389995E+00   7   7   2   2
  0.4405381950230277E+00   7   7   3   3
  0.4405381950230281E+00   7   7   4   4
  0.4505724560193552E+00   7   7   5   5
 -0.1494144297305922E-01   7   7   6   1
 -0.4646701248688478E-01   7   7   6   2
  0.3704901841635141E+00   7   7   6   6
 -0.3407273760330820E-01   7   7   7   1
  0.6192660820182438E-01   7   7   7   2
  0.1094619295707971E-01   7   7   7   6
  0.4064515220219033E+00   7   7   7   7
  0.5393670266298364E-16   8   1   1   1
  0.2513544738990573E-16   8   1   2   1
  0.2565164175366842E-16   8   1   2   2
  0.2840213756740555E-01   8   1   3   3
 -0.2840213756740554E-01   8   1   4   4
  0.1106664943805719E-16   8   1   5   5
 -0.1893366182123250E-16   8   1   6   1
 -0.1425542256206455E-16   8   1   6   2
  0.1730658301357087E-16   8   1   6   6
  0.3553656259862177E-17   8   1   7   1
 -0.1823045169989971E-17   8   1   7   2
  0.1010304671305978E-16   8   1   7   6
  0.1389794721461867E-16   8   1   7   7
  0.3770574366440903E-01   8   1   8   1
  0.2307849912921443E-16   8   2   1   1
  0.2374426906549199E-16   8   2   2   1
 -0.3758781456876818E-16   8   2   2   2
 -0.7494028754836913E-02   8   2   3   3
  0.7494028754836915E-02   8   2   4   4
 -0.4037647358755646E-16   8   2   5   5
 -0.7421839078417556E-17   8   2   6   1
 -0.7085494734252888E-17   8   2   6   2
 -0.2560926372817345E-17   8   2   6   6
  0.4279541505848074E-18   8   2   7   1
 -0.2452050628081513E-16   8   2   7   2
  0.1295479968826729E-16   8   2   7   6
 -0.2274174249181636E-16   8   2   7   7
 -0.7280857284541867E-02   8   2   8   1
  0.1196648463176892E-01   8   2   8   2
 -0.4871446648641956E-16   8   6   1   1
 -0.1568274795710212E-16   8   6   2   1
 -0.2125277710061379E-16   8   6   2   2
  0.1208327178514594E-01   8   6   3   3
 -0.1208327178514599E-01   8   6   4   4
 -0.1581543748107505E-16   8   6   5   5
  0.9046818316658552E-17   8   6   6   1
  0.1096820366482479E-16   8   6   6   2
 -0.1701548107135341E-16   8   6   6   6
  0.1129385500097422E-16   8   6   7   1
 -0.4067035658193740E-18   8   6   7   2
 -0.6097064958244873E-17   8   6   7   6
 -0.8270905887001760E-17   8   6   7   7
  0.1533217872936530E-01   8   6   8   1
 -0.4294975866269736E-02   8   6   8   2
  0.1120914103770119E-01   8   6   8   6
  0.8032245907546371E-16   8   7   1   1
  0.1313445897229354E-16   8   7   2   1
  0.2981501932272762E-16   8   7   2   2
  0.4316967694582078E-02   8   7   3   3
 -0.4316967694581910E-02   8   7   4   4
  0.3485737216976877E-16   8   7   5   5
  0.1923870445196094E-17   8   7   6   1
 -0.1273798487673149E-16   8   7   6   2
  0.3908381188355512E-16   8   7   6   6
  0.1037457625419494E-18   8   7   7   1
 -0.6553512266969859E-17   8   7   7   2
  0.2050797075579681E-16   8   7   7   6
  0.4043551194116838E-16   8   7   7   7
  0.5955809211831390E-02   8   7   8   1
 -0.4273928391074603E-03   8   7   8   2
  0.6600246838299090E-02   8   7   8   6
  0.8912983886344350E-02   8   7   8   7
  0.5947317532535664E+00   8   8   1   1
  0.4568645180562439E-01   8   8   2   1
  0.4861150525172553E+00   8   8   2   2
  0.5351823589748953E+00   8   8   3   3
  0.5351823589748957E+00   8   8   4   4
  0.4841019962049123E+00   8   8   5   5
 -0.1723495535924752E-01   8   8   6   1
 -0.7060913442847827E-01   8   8   6   2
  0.4096051305552913E+00   8   8   6   6
 -0.3944972452406204E-01   8   8   7   1
  0.4958737466131691E-01   8   8   7   2
  0.4255815297181087E-01   8   8   7   6
  0.4329076667366766E+00   8   8   7   7
 -0.9356172087312291E-17   8   8   8   1
  0.1356817606229575E-16   8   8   8   2
 -0.4068512459718659E-16   8   8   8   6
  0.7141023850860513E-16   8   8   8   7
  0.5505647890310007E+00   8   8   8   8
  0.5012217246661076E-01   9   1   1   1
  0.3593951017996567E-01   9   1   2   1
  0.1077188261959767E-01   9   1   2   2
  0.3109855010196657E-02   9   1   3   3
  0.3109855010196655E-02   9   1   4   4
 -0.1206006851437084E-01   9   1   5   5
 -0.2319693977036128E-01   9   1   6   1
 -0.1207197878040733E-01   9   1   6   2
  0.1511176433568365E-01   9   1   6   6
 -0.5245532891580234E-02   9   1   7   1
 -0.1022563764642883E-01   9   1   7   2
  0.9890335437394340E-02   9   1   7   6
 -0.2651914188087250E-02   9   1   7   7
  0.9691911482407913E-17   9   1   8   1
  0.1165429643620838E-16   9   1   8   2
 -0.1411471891735055E-16   9   1   8   6
 -0.6803532927814594E-17   9   1   8   7
 -0.3502008082422435E-02   9   1   8   8
  0.3939266413828706E-01   9   1   9   1
  0.7245989173183251E-01   9   2   1   1
  0.3817834620434495E-01   9   2   2   1
 -0.2163349113873430E-01   9   2   2   2
  0.3385022434932414E-01   9   2   3   3
  0.3385022434932419E-01   9   2   4   4
 -0.2582032017769877E-01   9   2   5   5
 -0.1384512831427619E-01   9   2   6   1
 -0.2464843371694179E-01   9   2   6   2
  0.9552870697791864E-02   9   2   6   6
 -0.4853132676557570E-02   9   2   7   1
 -0.2604363556863774E-01   9   2   7   2
  0.2302374116815657E-01   9   2   7   6
 -0.9077156134900743E-02   9   2   7   7
  0.1036747697000488E-16   9   2   8   1
  0.3182783855687345E-16   9   2   8   2
 -0.8066206595737973E-17   9   2   8   6
  0.2356717367990486E-16   9   2   8   7
  0.3324935097011207E-01   9   2   8   8
  0.1139244351300125E-01   9   2   9   1
  0.5505639614586479E-01   9   2   9   2
 -0.6354758142190259E-01   9   6   1   1
 -0.1645225897324294E-01   9   6   2   1
 -0.4559870448537766E-01   9   6   2   2
 -0.3729365694057341E-01   9   6   3   3
 -0.3729365694057356E-01   9   6   4   4
 -0.3716872482839756E-01   9   6   5   5
  0.1732151457150473E-01   9   6   6   1
  0.1002578580700478E-01   9   6   6   2
 -0.2536896051807442E-01   9   6   6   6
  0.1305848428948132E-01   9   6   7   1
 -0.4047285934739513E-02   9   6   7   2
 -0.1638429102527802E-03   9   6   7   6
 -0.2166711019347890E-01   9   6   7   7
 -0.1539266813326090E-16   9   6   8   1
 -0.2020567073930114E-18   9   6   8   2
  0.4980131968717621E-17   9   6   8   6
 -0.6681383485266041E-17   9   6   8   7
 -0.3645431319445060E-01   9   6   8   8
 -0.1072593902955823E-01   9   6   9   1
 -0.5702084932626704E-02   9   6   9   2
  0.1786052423118049E-01   9   6   9   6
  0.6275512688101530E-05   9   7   1   1
  0.1948495313478043E-02   9   7   2   1
 -0.2891324683229934E-01   9   7   2   2
  0.4789451891752688E-02   9   7   3   3
  0.4789451891752757E-02   9   7   4   4
 -0.2119010987980634E-01   9   7   5   5
  0.7591200408910128E-02   9   7   6   1
 -0.7856727650881521E-03   9   7   6   2
 -0.3707091565431841E-02   9   7   6   6
  0.5309878408610456E-02   9   7   7   1
 -0.1366068056080823E-01   9   7   7   2
  0.1193357622897066E-01   9   7   7   6
 -0.1037602451999920E-01   9   7   7   7
 -0.1325021771630356E-16   9   7   8   1
  0.1665438724545893E-16   9   7   8   2
 -0.5466734823772264E-17   9   7   8   6
  0.1036711978105179E-16   9   7   8   7
  0.5338338949986905E-02   9   7   8   8
 -0.7787824920380321E-02   9   7   9   1
  0.1737780997041769E-01   9   7   9   2
  0.5397577855819418E-02   9   7   9   6
  0.1666427266661331E-01   9   7   9   7
  0.1062376278851891E-15   9   8   1   1
  0.8799906913400491E-17   9   8   2   1
  0.1205489829843892E-15   9   8   2   2
 -0.1237930396737867E-01   9   8   3   3
  0.1237930396737886E-01   9   8   4   4
  0.1087318811288914E-15   9   8   5   5
 -0.1821565451287183E-16   9   8   6   1
 -0.1080447208539037E-16   9   8   6   2
  0.7813443825294148E-16   9   8   6   6
 -0.2303642393648223E-16   9   8   7   1
  0.2799580418344207E-16   9   8   7   2
 -0.9586608406586445E-17   9   8   7   6
  0.8717117364523988E-16   9   8   7   7
 -0.1458002431348586E-01   9   8   8   1
  0.1000118528665898E-01   9   8   8   2
 -0.6653564578913383E-02   9   8   8   6
  0.2097303600131822E-03   9   8   8   7
  0.9450999801429458E-16   9   8   8   8
  0.1572068893623974E-16   9   8   9   1
 -0.1984218198424161E-16   9   8   9   2
 -0.1230422308854554E-16   9   8   9   6
 -0.8946398905632369E-17   9   8   9   7
  0.1729887897681391E-01   9   8   9   8
  0.5886720318154892E+00   9   9   1   1
  0.4633534741127766E-01   9   9   2   1
  0.5311354249395215E+00   9   9   2   2
  0.5145813985448500E+00   9   9   3   3
  0.5145813985448504E+00   9   9   4   4
  0.5120850263168731E+00   9   9   5   5
 -0.4046701011150056E-01   9   9   6   1
 -0.6705351125030287E-01   9   9   6   2
  0.4146973820245165E+00   9   9   6   6
 -0.5582973514736422E-01   9   9   7   1
  0.7129609924782820E-01   9   9   7   2
  0.2057892894320157E-01   9   9   7   6
  0.4426902878180100E+00   9   9   7   7
  0.3483996354586938E-16   9   9   8   1
 -0.2763350172692968E-16   9   9   8   2
 -0.2494195433911236E-16   9   9   8   6
  0.4644399104533871E-16   9   9   8   7
  0.5051763880013499E+00   9   9   8   8
  0.1386068808348628E-01   9   9   9   1
 -0.1181991540712315E-02   9   9   9   2
 -0.4868311680527040E-01   9   9   9   6
 -0.1684569113403012E-01   9   9   9   7
  0.1019759168332256E-15   9   9   9   8
  0.5358892297928592E+00   9   9   9   9
 -0.1566482778919926E+00  10   3   1   1
 -0.3560362445302837E-01  10   3   2   1
 -0.1025661860076082E+00  10   3   2   2
 -0.1120859416425121E+00  10   3   3   3
 -0.1046493722546102E+00  10   3   4   4
 -0.9108619869689408E-01  10   3   5   5
  0.3166928169086133E-01  10   3   6   1
  0.4042425901836531E-01  10   3   6   2
 -0.5316597778140675E-01  10   3   6   6
  0.3741714563375986E-01  10   3   7   1
 -0.3248889688301684E-01  10   3   7   2
 -0.1252424586090747E-02  10   3   7   6
 -0.6369611478941012E-01  10   3   7   7
 -0.4971505646935866E-02  10   3   8   1
 -0.8415267964980088E-03  10   3   8   2
  0.1995924505079980E-02  10   3   8   6
  0.5925412449241454E-02  10   3   8   7
 -0.9012001126348058E-01  10   3   8   8
 -0.1914818483783526E-02  10   3   9   1
 -0.1355615540086008E-01  10   3   9   2
  0.1864663865612466E-01  10   3   9   6
  0.2348034233631058E-02  10   3   9   7
  0.3172005125948070E-02  10   3   9   8
 -0.9961718625787061E-01  10   3   9   9
  0.7608584235165047E-01  10   3  10   3
  0.5073488862454059E+00  10  10   1   1
  0.4145698869387077E-01  10  10   2   1
  0.4279886966602822E+00  10  10   2   2
  0.4715683848104595E+00  10  10   3   3
  0.4404569721790711E+00  10  10   4   4
  0.4193431711252446E+00  10  10   5   5
 -0.2441989743818029E-01  10  10   6   1
 -0.6097213677521657E-01  10  10   6   2
  0.3693928968551953E+00  10  10   6   6
 -0.3612471901350567E-01  10  10   7   1
  0.4062328434647999E-01  10  10   7   2
  0.3098797339549769E-01  10  10   7   6
  0.3905508975539327E+00  10  10   7   7
  0.1673303819087726E-01  10  10   8   1
 -0.5700622040277938E-02  10  10   8   2
  0.7993546762580664E-02  10  10   8   6
  0.4632403522701498E-02  10  10   8   7
  0.4414830396440627E+00  10  10   8   8
  0.1545302489412093E-02  10  10   9   1
  0.1992504144434600E-01  10  10   9   2
 -0.2193674469594531E-01  10  10   9   6
  0.5483747720177623E-02  10  10   9   7
 -0.6930107737108821E-02  10  10   9   8
  0.4332532173272017E+00  10  10   9   9
 -0.7260725961112185E-01  10  10  10   3
  0.4216420597289503E+00  10  10  10  10
  0.7959396540682678E-01  11   3   1   1
  0.4548556298996945E-01  11   3   2   1
 -0.1897597302847685E-01  11   3   2   2
  0.3698688736830076E-01  11   3   3   3
  0.2808145862608227E-01  11   3   4   4
 -0.3178495984040688E-01  11   3   5   5
 -0.9570237053655235E-02  11   3   6   1
 -0.1810569510200638E-01  11   3   6   2
  0.1849644647477725E-01  11   3   6   6
  0.2381449768244601E-02  11   3   7   1
 -0.2416096400049699E-01  11   3   7   2
  0.2979938199110960E-01  11   3   7   6
 -0.7254549485566475E-02  11   3   7   7
  0.8675132568434959E-02  11   3   8   1
  0.7273967902272871E-02  11   3   8   2
  0.3897883377363488E-02  11   3   8   6
  0.4575317380100207E-02  11   3   8   7
  0.2993561267916149E-01  11   3   8   8
  0.2586595668097816E-01  11   3   9   1
  0.3124315553841928E-01  11   3   9   2
 -0.2775051176002290E-02  11   3   9   6
  0.9283777170533740E-02  11   3   9   7
  0.4135273785653915E-02  11   3   9   8
  0.7920847068068896E-02  11   3   9   9
 -0.7277921691229499E-02  11   3  10   3
  0.1859510816831584E-01  11   3  10  10
  0.6646028204358038E-01  11   3  11   3
 -0.2478045924571951E-01  11  10   1   1
 -0.1750038400673255E-01  11  10   2   1
  0.4700000629656326E-02  11  10   2   2
 -0.2722840739334241E-02  11  10   3   3
 -0.2538819171573147E-02  11  10   4   4
  0.1224389110117485E-01  11  10   5   5
  0.9875642316844947E-02  11  10   6   1
  0.2297636101736729E-03  11  10   6   2
 -0.4788544961270827E-02  11  10   6   6
  0.4468410891718573E-04  11  10   7   1
  0.1512983326031330E-01  11  10   7   2
 -0.3807846149503944E-02  11  10   7   6
  0.8934438886656187E-02  11  10   7   7
 -0.1904168847522792E-02  11  10   8   1
 -0.1985595394836536E-02  11  10   8   2
  0.1318228433651770E-02  11  10   8   6
 -0.7792388232596091E-03  11  10   8   7
 -0.4126014031761181E-02  11  10   8   8
 -0.1339497873892732E-01  11  10   9   1
 -0.1019451019102879E-01  11  10   9   2
  0.6355930355396016E-02  11  10   9   6
  0.1183598105951117E-02  11  10   9   7
 -0.1410274790129817E-02  11  10   9   8
 -0.2094311671941897E-02  11  10   9   9
  0.3472879692643531E-03  11  10  10   3
  0.3414429919279093E-02  11  10  10  10
 -0.1947924463820092E-01  11  10  11   3
  0.1510942927382758E-01  11  10  11  10
  0.6116600074036197E+00  11  11   1   1
  0.5058543197490176E-01  11  11   2   1
  0.5337908780059528E+00  11  11   2   2
  0.5546359050329873E+00  11  11   3   3
  0.5156415300692035E+00  11  11   4   4
  0.5171802144149790E+00  11  11   5   5
 -0.3477011337223923E-01  11  11   6   1
 -0.7040622888157300E-01  11  11   6   2
  0.4196719187522262E+00  11  11   6   6
 -0.5266589252879206E-01  11  11   7   1
  0.6922493016190956E-01  11  11   7   2
  0.2639911577056409E-01  11  11   7   6
  0.4491919448520271E+00  11  11   7   7
  0.2557484327699286E-01  11  11   8   1
 -0.8572765635800093E-02  11  11   8   2
  0.8932046668521952E-02  11  11   8   6
  0.2658110464796081E-02  11  11   8   7
  0.5286201381985489E+00  11  11   8   8
  0.1609633067955585E-01  11  11   9   1
  0.1308959874900859E-01  11  11   9   2
 -0.4392690468937518E-01  11  11   9   6
 -0.1003592365375461E-01  11  11   9   7
 -0.6808233214705004E-02  11  11   9   8
  0.5290822102777675E+00  11  11   9   9
 -0.1055345045721383E+00  11  11  10   3
  0.4542205416015234E+00  11  11  10  10
  0.2256683999647097E-01  11  11  11   3
 -0.7503770839947757E-02  11  11  11  10
  0.5839907816798743E+00  11  11  11  11
 -0.1566482778919922E+00  12   4   1   1
 -0.3560362445302827E-01  12   4   2   1
 -0.1025661860076078E+00  12   4   2   2
 -0.1046493722546095E+00  12   4   3   3
 -0.1120859416425121E+00  12   4   4   4
 -0.9108619869689373E-01  12   4   5   5
  0.3166928169086150E-01  12   4   6   1
  0.4042425901836545E-01  12   4   6   2
 -0.5316597778140711E-01  12   4   6   6
  0.3741714563376020E-01  12   4   7   1
 -0.3248889688301762E-01  12   4   7   2
 -0.1252424586090373E-02  12   4   7   6
 -0.6369611478941181E-01  12   4   7   7
  0.4971505646935805E-02  12   4   8   1
  0.8415267964980173E-03  12   4   8   2
 -0.1995924505079971E-02  12   4   8   6
 -0.5925412449241485E-02  12   4   8   7
 -0.9012001126347997E-01  12   4   8   8
 -0.1914818483783165E-02  12   4   9   1
 -0.1355615540086021E-01  12   4   9   2
  0.1864663865612414E-01  12   4   9   6
  0.2348034233630461E-02  12   4   9   7
 -0.3172005125948088E-02  12   4   9   8
 -0.9961718625787047E-01  12   4   9   9
  0.5970777329375181E-01  12   4  10   3
 -0.7374227093542370E-01  12   4  10  10
 -0.7283107993380215E-02  12   4  11   3
 -0.1370628428883714E-03  12   4  11  10
 -0.9911063049842131E-01  12   4  11  11
  0.7608584235165032E-01  12   4  12   4
  0.5073488862454055E+00  12  12   1   1
  0.4145698869387046E-01  12  12   2   1
  0.4279886966602819E+00  12  12   2   2
  0.4404569721790699E+00  12  12   3   3
  0.4715683848104600E+00  12  12   4   4
  0.4193431711252442E+00  12  12   5   5
 -0.2441989743818085E-01  12  12   6   1
 -0.6097213677521655E-01  12  12   6   2
  0.3693928968551969E+00  12  12   6   6
 -0.3612471901350489E-01  12  12   7   1
  0.4062328434647988E-01  12  12   7   2
  0.3098797339549902E-01  12  12   7   6
  0.3905508975539233E+00  12  12   7   7
 -0.1673303819087720E-01  12  12   8   1
  0.5700622040277942E-02  12  12   8   2
 -0.7993546762580803E-02  12  12   8   6
 -0.4632403522701372E-02  12  12   8   7
  0.4414830396440627E+00  12  12   8   8
  0.1545302489411537E-02  12  12   9   1
  0.1992504144434576E-01  12  12   9   2
 -0.2193674469594323E-01  12  12   9   6
  0.5483747720176124E-02  12  12   9   7
  0.6930107737108926E-02  12  12   9   8
  0.4332532173272025E+00  12  12   9   9
 -0.7374227093542363E-01  12  12  10   3
  0.3890200197305266E+00  12  12  10  10
  0.1506520018488280E-01  12  12  11   3
  0.1415947885661226E-02  12  12  11  10
  0.4314939281983179E+00  12  12  11  11
 -0.7260725961112258E-01  12  12  12   4
  0.4216420597289532E+00  12  12  12  12
  0.7959396540682689E-01  13   4   1   1
  0.4548556298996945E-01  13   4   2   1
 -0.1897597302847679E-01  13   4   2   2
  0.2808145862608232E-01  13   4   3   3
  0.3698688736830086E-01  13   4   4   4
 -0.3178495984040684E-01  13   4   5   5
 -0.9570237053655235E-02  13   4   6   1
 -0.1810569510200630E-01  13   4   6   2
  0.1849644647477715E-01  13   4   6   6
  0.2381449768244753E-02  13   4   7   1
 -0.2416096400049705E-01  13   4   7   2
  0.2979938199110971E-01  13   4   7   6
 -0.7254549485567618E-02  13   4   7   7
 -0.8675132568434942E-02  13   4   8   1
 -0.7273967902272824E-02  13   4   8   2
 -0.3897883377363509E-02  13   4   8   6
 -0.4575317380100179E-02  13   4   8   7
  0.2993561267916161E-01  13   4   8   8
  0.2586595668097823E-01  13   4   9   1
  0.3124315553841943E-01  13   4   9   2
 -0.2775051176002427E-02  13   4   9   6
  0.9283777170533331E-02  13   4   9   7
 -0.4135273785653926E-02  13   4   9   8
  0.7920847068069076E-02  13   4   9   9
 -0.7283107993380273E-02  13   4  10   3
  0.1506520018488267E-01  13   4  10  10
  0.4499566134214411E-01  13   4  11   3
 -0.1412059132991023E-01  13   4  11  10
  0.1614822045492718E-01  13   4  11  11
 -0.7277921691229452E-02  13   4  12   4
  0.1859510816831601E-01  13   4  12  12
  0.6646028204358043E-01  13   4  13   4
 -0.2478045924571922E-01  13  12   1   1
 -0.1750038400673244E-01  13  12   2   1
  0.4700000629656411E-02  13  12   2   2
 -0.2538819171573267E-02  13  12   3   3
 -0.2722840739334111E-02  13  12   4   4
  0.1224389110117476E-01  13  12   5   5
  0.9875642316844848E-02  13  12   6   1
  0.2297636101737700E-03  13  12   6   2
 -0.4788544961270858E-02  13  12   6   6
  0.4468410891684572E-04  13  12   7   1
  0.1512983326031348E-01  13  12   7   2
 -0.3807846149503261E-02  13  12   7   6
  0.8934438886657200E-02  13  12   7   7
  0.1904168847522752E-02  13  12   8   1
  0.1985595394836499E-02  13  12   8   2
 -0.1318228433651779E-02  13  12   8   6
  0.7792388232596250E-03  13  12   8   7
 -0.4126014031761084E-02  13  12   8   8
 -0.1339497873892754E-01  13  12   9   1
 -0.1019451019102854E-01  13  12   9   2
  0.6355930355396277E-02  13  12   9   6
  0.1183598105952241E-02  13  12   9   7
  0.1410274790129814E-02  13  12   9   8
 -0.2094311671941883E-02  13  12   9   9
 -0.1370628428882278E-03  13  12  10   3
  0.1415947885660984E-02  13  12  10  10
 -0.1412059132991001E-01  13  12  11   3
  0.9836387738953902E-02  13  12  11  10
 -0.4542737843172289E-02  13  12  11  11
  0.3472879692643769E-03  13  12  12   4
  0.3414429919279059E-02  13  12  12  12
 -0.1947924463820079E-01  13  12  13   4
  0.1510942927382747E-01  13  12  13  12
  0.6116600074036197E+00  13  13   1   1
  0.5058543197490176E-01  13  13   2   1
  0.5337908780059530E+00  13  13   2   2
  0.5156415300692028E+00  13  13   3   3
  0.5546359050329877E+00  13  13   4   4
  0.5171802144149787E+00  13  13   5   5
 -0.3477011337223918E-01  13  13   6   1
 -0.7040622888157283E-01  13  13   6   2
  0.4196719187522253E+00  13  13   6   6
 -0.5266589252879228E-01  13  13   7   1
  0.6922493016190912E-01  13  13   7   2
  0.2639911577056442E-01  13  13   7   6
  0.4491919448520251E+00  13  13   7   7
 -0.2557484327699281E-01  13  13   8   1
  0.8572765635800056E-02  13  13   8   2
 -0.8932046668522008E-02  13  13   8   6
 -0.2658110464795967E-02  13  13   8   7
  0.5286201381985488E+00  13  13   8   8
  0.1609633067955540E-01  13  13   9   1
  0.1308959874900843E-01  13  13   9   2
 -0.4392690468937549E-01  13  13   9   6
 -0.1003592365375372E-01  13  13   9   7
  0.6808233214705178E-02  13  13   9   8
  0.5290822102777695E+00  13  13   9   9
 -0.9911063049842161E-01  13  13  10   3
  0.4314939281983176E+00  13  13  10  10
  0.1614822045492717E-01  13  13  11   3
 -0.4542737843172370E-02  13  13  11  10
  0.5345811131060723E+00  13  13  11  11
 -0.1055345045721378E+00  13  13  12   4
  0.4542205416015225E+00  13  13  12  12
  0.2256683999647108E-01  13  13  13   4
 -0.7503770839947743E-02  13  13  13  12
  0.5839907816798742E+00  13  13  13  13
  0.5947317532535652E+00  14  14   1   1
  0.4568645180562415E-01  14  14   2   1
  0.4861150525172543E+00  14  14   2   2
  0.5351823589748943E+00  14  14   3   3
  0.5351823589748947E+00  14  14   4   4
  0.4841019962049115E+00  14  14   5   5
 -0.1723495535924735E-01  14  14   6   1
 -0.7060913442847766E-01  14  14   6   2
  0.4096051305552904E+00  14  14   6   6
 -0.3944972452406270E-01  14  14   7   1
  0.4958737466131680E-01  14  14   7   2
  0.4255815297181031E-01  14  14   7   6
  0.4329076667366786E+00  14  14   7   7
  0.1074369792243646E-16  14  14   8   1
  0.2667425779618805E-17  14  14   8   2
 -0.2939707891832524E-16  14  14   8   6
  0.6870223314804455E-16  14  14   8   7
  0.5281907910959381E+00  14  14   8   8
 -0.3502008082422736E-02  14  14   9   1
  0.3324935097011213E-01  14  14   9   2
 -0.3645431319445047E-01  14  14   9   6
  0.5338338949989252E-02  14  14   9   7
  0.8346861661783027E-16  14  14   9   8
  0.5051763880013506E+00  14  14   9   9
 -0.9012001126347985E-01  14  14  10   3
  0.4414830396440610E+00  14  14  10  10
  0.2993561267916162E-01  14  14  11   3
 -0.4126014031761410E-02  14  14  11  10
  0.5286201381985483E+00  14  14  11  11
 -0.9012001126347924E-01  14  14  12   4
  0.4414830396440609E+00  14  14  12  12
  0.2993561267916170E-01  14  14  13   4
 -0.4126014031761507E-02  14  14  13  12
  0.5286201381985480E+00  14  14  13  13
  0.5505647890309985E+00  14  14  14  14
  0.9841265328774494E-01  15   5   1   1
  0.1856585200797418E-01  15   5   2   1
  0.4978223265651369E-01  15   5   2   2
  0.7827049778991683E-01  15   5   3   3
  0.7827049778991699E-01  15   5   4   4
  0.5076868273127512E-01  15   5   5   5
 -0.5880462192291269E-02  15   5   6   1
 -0.3475999154373187E-01  15   5   6   2
  0.2785022979288664E-01  15   5   6   6
 -0.1561775520802179E-01  15   5   7   1
  0.1930843553627570E-01  15   5   7   2
  0.1997037144693146E-01  15   5   7   6
  0.4300498908205024E-01  15   5   7   7
  0.2578745038031666E-17  15   5   8   1
  0.4727235545680526E-17  15   5   8   2
 -0.7887766390395096E-17  15   5   8   6
  0.1770306794996266E-16  15   5   8   7
  0.7368424935365786E-01  15   5   8   8
 -0.4560622744296597E-02  15   5   9   1
  0.1976182730885698E-01  15   5   9   2
 -0.4995302483285214E-02  15   5   9   6
  0.6351992388293162E-02  15   5   9   7
  0.3403673115474543E-17  15   5   9   8
  0.5726450183917607E-01  15   5   9   9
 -0.3221660099067300E-01  15   5  10   3
  0.5492634332765221E-01  15   5  10  10
  0.1068638211555576E-01  15   5  11   3
  0.3719884487273877E-02  15   5  11  10
  0.6392541254286427E-01  15   5  11  11
 -0.3221660099067290E-01  15   5  12   4
  0.5492634332765206E-01  15   5  12  12
  0.1068638211555576E-01  15   5  13   4
  0.3719884487273891E-02  15   5  13  12
  0.6392541254286427E-01  15   5  13  13
  0.7368424935365839E-01  15   5  14  14
  0.3451760017272139E-01  15   5  15   5
  0.3811025966065358E+00  15  15   1   1
  0.1116094953033231E-01  15  15   2   1
  0.3783099616688956E+00  15  15   2   2
  0.3562909894383251E+00  15  15   3   3
  0.3562909894383254E+00  15  15   4   4
  0.3709249304215479E+00  15  15   5   5
 -0.1946054257312060E-01  15  15   6   1
 -0.6109156323869158E-02  15  15   6   2
  0.3408580786274355E+00  15  15   6   6
 -0.2230799961445540E-01  15  15   7   1
  0.2060664848111393E-01  15  15   7   2
 -0.1513484977268303E-01  15  15   7   6
  0.3363730177706035E+00  15  15   7   7
  0.6778300089084460E-17  15  15   8   1
 -0.9942666939903945E-17  15  15   8   2
 -0.6454260400978006E-17  15  15   8   6
  0.2592564076026806E-16  15  15   8   7
  0.3536487804012801E+00  15  15   8   8
 -0.1996989428144080E-03  15  15   9   1
 -0.7890279716057755E-02  15  15   9   2
 -0.2220850029967661E-01  15  15   9   6
 -0.9338139253181443E-02  15  15   9   7
  0.7584989009512489E-16  15  15   9   8
  0.3697649532401980E+00  15  15   9   9
 -0.4265454633497723E-01  15  15  10   3
  0.3210973285408778E+00  15  15  10  10
 -0.5403000134115502E-02  15  15  11   3
 -0.3766717577319473E-02  15  15  11  10
  0.3686024633783324E+00  15  15  11  11
 -0.4265454633497698E-01  15  15  12   4
  0.3210973285408779E+00  15  15  12  12
 -0.5403000134115460E-02  15  15  13   4
 -0.3766717577319417E-02  15  15  13  12
  0.3686024633783322E+00  15  15  13  13
  0.3536487804012841E+00  15  15  14  14
  0.3550426390711181E-02  15  15  15   5
  0.3505093677701523E+00  15  15  15  15
 -0.9993932771560278E-02  16   5   1   1
  0.1954727624593385E-01  16   5   2   1
 -0.8498384078639933E-01  16   5   2   2
 -0.2144650879556204E-01  16   5   3   3
 -0.2144650879556214E-01  16   5   4   4
 -0.8023326541781725E-01  16   5   5   5
  0.3285033355835468E-02  16   5   6   1
  0.6013423567845060E-02  16   5   6   2
 -0.1654357567197820E-01  16   5   6   6
  0.1609050743494509E-01  16   5   7   1
 -0.5233425768914257E-01  16   5   7   2
  0.2011319380244102E-01  16   5   7   6
 -0.4955684766810788E-01  16   5   7   7
 -0.3457538876495116E-17  16   5   8   1
  0.3660908027648278E-16  16   5   8   2
 -0.3842569005680966E-17  16   5   8   6
  0.2032169954974972E-16  16   5   8   7
 -0.1411217744695308E-01  16   5   8   8
  0.1951884493382416E-02  16   5   9   1
  0.4244257544761387E-01  16   5   9   2
  0.4049737496042692E-02  16   5   9   6
  0.2253544654089008E-01  16   5   9   7
 -0.3037433012447705E-16  16   5   9   8
 -0.5505025015735036E-01  16   5   9   9
  0.1799465893598317E-01  16   5  10   3
 -0.1779926889220920E-01  16   5  10  10