  &FCI NORB=  6,NELEC=  6,MS2=  0,
  ORBSYM= 1, 1, 1, 1, 1, 1,
  ISYM=0
 &END
    0.68440952650        1    1    1    1
   -0.16527837154E-02    2    1    1    1
    0.26374004691E-04    2    1    2    1
    0.13228708240        2    2    1    1
   -0.16530684038E-02    2    2    2    1
    0.68451346284        2    2    2    2
    0.44343702502E-05    3    1    1    1
   -0.84888859626E-07    3    1    2    1
    0.55911733171E-05    3    1    2    2
   -0.11138298608E-03    3    2    1    1
    0.52067238449E-05    3    2    2    1
   -0.16530684038E-02    3    2    2    2
   -0.84888859626E-07    3    2    3    1
    0.26374004691E-04    3    2    3    2
    0.66143889049E-01    3    3    1    1
   -0.11138298608E-03    3    3    2    1
    0.13228708240        3    3    2    2
    0.44343702504E-05    3    3    3    1
   -0.16527837154E-02    3    3    3    2
    0.68440952650        3    3    3    3
   -0.16527110449E-02    4    1    1    1
    0.84029014442E-05    4    1    2    1
    0.53482943599E-04    4    1    2    2
   -0.22396039406E-07    4    1    3    1
   -0.61388661434E-07    4    1    3    2
    0.14513429584E-04    4    1    3    3
    0.26370801664E-04    4    1    4    1
    0.50489663945E-04    4    2    1    1
    0.13571939742E-05    4    2    2    1
   -0.22627495387E-03    4    2    2    2
    0.78254700021E-06    4    2    3    2
   -0.12262717844E-04    4    2    3    3
    0.13569724718E-05    4    2    4    1
    0.36323580555E-06    4    2    4    2
    0.12365599509E-05    4    3    2    2
   -0.25825839988E-06    4    3    3    3
    0.13228210509        4    4    1    1
    0.53478112131E-04    4    4    2    1
    0.93537393880E-01    4    4    2    2
   -0.12146329898E-06    4    4    3    1
   -0.29507567619E-04    4    4    3    2
    0.59160000322E-01    4    4    3    3
   -0.16527110449E-02    4    4    4    1
   -0.22621345129E-03    4    4    4    2
   -0.25825839976E-06    4    4    4    3
    0.68440952650        4    4    4    4
   -0.22621345129E-03    5    1    1    1
    0.13572270503E-05    5    1    2    1
    0.50473552298E-04    5    1    2    2
   -0.13193812779E-06    5    1    3    2
    0.35600408708E-05    5    1    3    3
    0.13569724718E-05    5    1    4    1
    0.34226848938E-07    5    1    4    2
    0.50489663945E-04    5    1    4    4
    0.36323580555E-06    5    1    5    1
    0.54257321041E-04    5    2    1    1
    0.83866167769E-05    5    2    2    1
   -0.16469192896E-02    5    2    2    2
   -0.39627374171E-07    5    2    3    1
    0.83866167769E-05    5    2    3    2
    0.54257321041E-04    5    2    3    3
    0.67501050337E-06    5    2    4    1
    0.13550010499E-05    5    2    4    2
    0.54257321041E-04    5    2    4    4
    0.13550010499E-05    5    2    5    1
    0.26266379238E-04    5    2    5    2
    0.35600408708E-05    5    3    1    1
   -0.13193812779E-06    5    3    2    1
    0.50473552298E-04    5    3    2    2
    0.13572270503E-05    5    3    3    2
   -0.22621345129E-03    5    3    3    3
    0.10887150898E-07    5    3    4    1
   -0.22654633333E-07    5    3    4    2
   -0.12262717844E-04    5    3    4    4
    0.12558886462E-06    5    3    5    1
    0.13550010499E-05    5    3    5    2
    0.36323580555E-06    5    3    5    3
    0.53478112131E-04    5    4    1    1
    0.67461490788E-06    5    4    2    1
    0.53485186705E-04    5    4    2    2
   -0.33362458279E-06    5    4    3    2
   -0.29507567619E-04    5    4    3    3
    0.84029014442E-05    5    4    4    1
    0.13572270503E-05    5    4    4    2
   -0.16527837154E-02    5    4    4    4
    0.13571939742E-05    5    4    5    1
    0.83866167769E-05    5    4    5    2
    0.78254700021E-06    5    4    5    3
    0.26374004691E-04    5    4    5    4
    0.93537393880E-01    5    5    1    1
    0.53485186705E-04    5    5    2    1
    0.13228427438        5    5    2    2
   -0.27399283594E-06    5    5    3    1
    0.53485186705E-04    5    5    3    2
    0.93537393880E-01    5    5    3    3
    0.53482943599E-04    5    5    4    1
    0.50473552298E-04    5    5    4    2
    0.12365599509E-05    5    5    4    3
    0.13228708240        5    5    4    4
   -0.22627495387E-03    5    5    5    1
   -0.16469192896E-02    5    5    5    2
   -0.22627495387E-03    5    5    5    3
   -0.16530684038E-02    5    5    5    4
    0.68451346284        5    5    5    5
   -0.25825839988E-06    6    1    1    1
    0.12365599509E-05    6    1    2    2
    0.12365599509E-05    6    1    5    5
   -0.12262717844E-04    6    2    1    1
    0.78254700021E-06    6    2    2    1
   -0.22627495387E-03    6    2    2    2
    0.13571939742E-05    6    2    3    2
    0.50489663945E-04    6    2    3    3
    0.10887150898E-07    6    2    4    1
    0.12558886462E-06    6    2    4    2
    0.35600408708E-05    6    2    4    4
   -0.22654633333E-07    6    2    5    1
    0.13550010499E-05    6    2    5    2
    0.34226848938E-07    6    2    5    3
   -0.13193812779E-06    6    2    5    4
    0.50473552298E-04    6    2    5    5
    0.36323580555E-06    6    2    6    2
    0.14513429584E-04    6    3    1    1
   -0.61388661434E-07    6    3    2    1
    0.53482943599E-04    6    3    2    2
   -0.22396039407E-07    6    3    3    1
    0.84029014442E-05    6    3    3    2
   -0.16527110449E-02    6    3    3    3
    0.41734111569E-07    6    3    4    1
    0.10887150898E-07    6    3    4    2
    0.14513429584E-04    6    3    4    4
    0.10887150898E-07    6    3    5    1
    0.67501050337E-06    6    3    5    2
    0.13569724718E-05    6    3    5    3
   -0.61388661434E-07    6    3    5    4
    0.53482943599E-04    6    3    5    5
    0.13569724718E-05    6    3    6    2
    0.26370801664E-04    6    3    6    3
   -0.12146329897E-06    6    4    1    1
   -0.27399283594E-06    6    4    2    2
   -0.12146329897E-06    6    4    3    3
   -0.22396039407E-07    6    4    4    1
    0.44343702503E-05    6    4    4    4
   -0.39627374171E-07    6    4    5    2
   -0.84888859626E-07    6    4    5    4
    0.55911733171E-05    6    4    5    5
   -0.22396039407E-07    6    4    6    3
   -0.29507567619E-04    6    5    1    1
   -0.33362458279E-06    6    5    2    1
    0.53485186705E-04    6    5    2    2
    0.67461490788E-06    6    5    3    2
    0.53478112131E-04    6    5    3    3
   -0.61388661434E-07    6    5    4    1
   -0.13193812779E-06    6    5    4    2
   -0.11138298608E-03    6    5    4    4
    0.78254700021E-06    6    5    5    1
    0.83866167769E-05    6    5    5    2
    0.13571939742E-05    6    5    5    3
    0.52067238449E-05    6    5    5    4
   -0.16530684038E-02    6    5    5    5
    0.13572270503E-05    6    5    6    2
    0.84029014442E-05    6    5    6    3
   -0.84888859626E-07    6    5    6    4
    0.26374004691E-04    6    5    6    5
    0.59160000322E-01    6    6    1    1
   -0.29507567619E-04    6    6    2    1
    0.93537393880E-01    6    6    2    2
   -0.12146329896E-06    6    6    3    1
    0.53478112131E-04    6    6    3    2
    0.13228210509        6    6    3    3
    0.14513429584E-04    6    6    4    1
    0.35600408708E-05    6    6    4    2
    0.66143889049E-01    6    6    4    4
   -0.12262717844E-04    6    6    5    1
    0.54257321041E-04    6    6    5    2
    0.50489663945E-04    6    6    5    3
   -0.11138298608E-03    6    6    5    4
    0.13228708240        6    6    5    5
   -0.25825839976E-06    6    6    6    1
   -0.22621345129E-03    6    6    6    2
   -0.16527110449E-02    6    6    6    3
    0.44343702503E-05    6    6    6    4
   -0.16527837154E-02    6    6    6    5
    0.68440952650        6    6    6    6
   -0.97728209223        1    1    0    0
   -0.24563055025E-02    2    1    0    0
    -1.0777896030        2    2    0    0
    0.23102575289E-04    3    1    0    0
   -0.24563055025E-02    3    2    0    0
   -0.97728209223        3    3    0    0
   -0.26260030833E-02    4    1    0    0
   -0.21312278437E-03    4    2    0    0
    0.29110150899E-05    4    3    0    0
   -0.97728209223        4    4    0    0
   -0.21312278438E-03    5    1    0    0
   -0.27016388308E-02    5    2    0    0
   -0.21312278437E-03    5    3    0    0
   -0.24563055025E-02    5    4    0    0
    -1.0777896030        5    5    0    0
    0.29110150928E-05    6    1    0    0
   -0.21312278436E-03    6    2    0    0
   -0.26260030833E-02    6    3    0    0
    0.23102575289E-04    6    4    0    0
   -0.24563055025E-02    6    5    0    0
   -0.97728209223        6    6    0    0
     1.5508668370        0    0    0    0
