 &FCI NORB=           20 ,NELEC=          32 ,MS2=            0 ,
  ORBSYM=
                      0,                      1,                      1,                  32768,                  32769,                  32768,                  32769,                  32768,                  32769,                  32768,                  32769,                      1,                      1,                      0,                      0,                      0,                  32768,                  32769,                      0,                      1,
  ISYM=           4
 NPROP =           2           2           1
 PROPBITLEN=          15
 &END
 (0.387974640976411,7.653388010744657E-030)           1           1           1
           1
 (3.246162943078942E-005,9.611336188192002E-006)           1           1
           1          14
 (8.466009246563230E-006,-1.775987436639796E-005)           1           1
           1          16
 (5.718869917380415E-002,4.611402347418155E-002)           1           2
           1           2
 (5.816459696805890E-003,-3.788907145802873E-003)           1           2
           1           3
 (-5.769054526845362E-005,-3.174524774681231E-005)           1           2
           1          12
 (5.794707697511152E-005,4.223546960024072E-005)           1           2
           1          13
 (-2.287158642132724E-005,2.912897251711111E-005)           1           2
           1          20
 (5.816459696805888E-003,-3.788907145802868E-003)           1           3
           1           2
 (1.413658527177119E-002,5.260322466010057E-002)           1           3
           1           3
 (-3.555491814450186E-004,3.331733299044956E-004)           1           3
           1          12
 (-1.655436128390485E-004,1.197200010397685E-004)           1           3
           1          13
 (3.502999299229596E-004,5.227804027908067E-004)           1           3
           1          20
 (-1.506317437235637E-002,-2.381169609366997E-002)           1           4
           1           4
 (2.277414917768195E-002,1.586761365153797E-003)           1           4
           1           6
 (-1.081556774262987E-003,1.255676264915272E-003)           1           4
           1           8
 (1.633488488317275E-002,4.607044408721007E-002)           1           4
           1          10
 (-1.482450019005407E-002,-2.291772171525176E-002)           1           4
           1          17
 (-4.845768815368047E-004,2.153391589457975E-003)           1           5
           1           5
 (3.259770145842245E-002,3.748028031921360E-002)           1           5
           1           7
 (-6.006848179392182E-004,4.475169442762300E-005)           1           5
           1           9
 (2.212851722212240E-003,-4.644062104390509E-003)           1           5
           1          11
 (1.223791155809729E-004,-5.706988348012403E-004)           1           5
           1          18
 (2.277414917768194E-002,1.586761365153796E-003)           1           6
           1           4
 (-3.596134629037244E-003,4.242140511828947E-003)           1           6
           1           6
 (9.320935202220683E-005,4.051046717924050E-004)           1           6
           1           8
 (3.739135030195294E-003,1.127491498018075E-003)           1           6
           1          10
 (-3.692683698343278E-003,-2.197501151205040E-004)           1           6
           1          17
 (3.259770145842243E-002,3.748028031921359E-002)           1           7
           1           5
 (-1.613495263666009E-003,1.329597798010231E-004)           1           7
           1           7
 (-4.043484350227471E-004,6.460234568895847E-004)           1           7
           1           9
 (1.189534736904251E-003,2.216640095140710E-003)           1           7
           1          11
 (2.641990047010829E-003,2.976343490797835E-003)           1           7
           1          18
 (-1.081556774262988E-003,1.255676264915273E-003)           1           8
           1           4
 (9.320935202220695E-005,4.051046717924051E-004)           1           8
           1           6
 (1.049025625847724E-002,4.626029828809832E-003)           1           8
           1           8
 (-8.892002169602737E-004,6.571495583838369E-004)           1           8
           1          10
 (3.250878987916955E-004,-3.852385340256192E-004)           1           8
           1          17
 (-6.006848179392192E-004,4.475169442762281E-005)           1           9
           1           5
 (-4.043484350227468E-004,6.460234568895832E-004)           1           9
           1           7
 (8.610828988165490E-003,2.219623762826245E-002)           1           9
           1           9
 (-1.425011026733525E-003,-2.138430813308926E-004)           1           9
           1          11
 (-2.224307801065709E-004,1.883628812222613E-005)           1           9
           1          18
 (1.633488488317275E-002,4.607044408721005E-002)           1          10
           1           4
 (3.739135030195294E-003,1.127491498018075E-003)           1          10
           1           6
 (-8.892002169602761E-004,6.571495583838361E-004)           1          10
           1           8
 (5.347898735389706E-004,4.533362681065506E-003)           1          10
           1          10
 (-1.443795964748658E-003,-3.944838840675045E-003)           1          10
           1          17
 (2.212851722212239E-003,-4.644062104390503E-003)           1          11
           1           5
 (1.189534736904252E-003,2.216640095140708E-003)           1          11
           1           7
 (-1.425011026733525E-003,-2.138430813308922E-004)           1          11
           1           9
 (-1.330317169324082E-002,1.686165835458222E-002)           1          11
           1          11
 (-4.137911270369148E-003,8.915365230654764E-003)           1          11
           1          18
 (-5.769054526845221E-005,-3.174524774681256E-005)           1          12
           1           2
 (-3.555491814450191E-004,3.331733299044966E-004)           1          12
           1           3
 (1.883521823440076E-002,6.398840944257829E-003)           1          12
           1          12
 (-3.841074187420206E-005,7.200486842613830E-005)           1          12
           1          20
 (5.794707697511312E-005,4.223546960024078E-005)           1          13
           1           2
 (-1.655436128390501E-004,1.197200010397692E-004)           1          13
           1           3
 (1.666197085271255E-002,1.094244820027317E-002)           1          13
           1          13
 (-2.712634451342426E-004,3.825039143791614E-004)           1          13
           1          20
 (3.246162943078891E-005,9.611336188191748E-006)           1          14
           1           1
 (1.506296891427031E-002,9.776860348856511E-003)           1          14
           1          14
 (-9.502132944750651E-003,1.529955106950207E-002)           1          15
           1          15
 (-1.315832060297095E-004,2.284416887050621E-005)           1          15
           1          19
 (8.466009246564540E-006,-1.775987436639799E-005)           1          16
           1           1
 (-1.132761318462327E-002,-1.397249333896657E-002)           1          16
           1          16
 (2.920041310934058E-004,2.890672419402831E-004)           1          16
           1          19
 (-1.482450019005407E-002,-2.291772171525176E-002)           1          17
           1           4
 (-3.692683698343278E-003,-2.197501151205033E-004)           1          17
           1           6
 (3.250878987916964E-004,-3.852385340256191E-004)           1          17
           1           8
 (-1.443795964748658E-003,-3.944838840675046E-003)           1          17
           1          10
 (2.709649476468340E-003,4.097418201230565E-003)           1          17
           1          17
 (1.223791155809732E-004,-5.706988348012394E-004)           1          18
           1           5
 (2.641990047010828E-003,2.976343490797835E-003)           1          18
           1           7
 (-2.224307801065716E-004,1.883628812222561E-005)           1          18
           1           9
 (-4.137911270369154E-003,8.915365230654761E-003)           1          18
           1          11
 (3.555009180554599E-003,-1.743748145770751E-002)           1          18
           1          18
 (-1.315832060297088E-004,2.284416887050616E-005)           1          19
           1          15
 (2.920041310934051E-004,2.890672419402811E-004)           1          19
           1          16
 (1.208111599947009E-002,9.590627802866151E-003)           1          19
           1          19
 (-2.287158642132647E-005,2.912897251711067E-005)           1          20
           1           2
 (3.502999299229594E-004,5.227804027908065E-004)           1          20
           1           3
 (-3.841074187420206E-005,7.200486842613576E-005)           1          20
           1          12
 (-2.712634451342433E-004,3.825039143791607E-004)           1          20
           1          13
 (1.251684225703125E-002,9.567246135328151E-003)           1          20
           1          20
 (0.389533758931906,-1.730677592632888E-021)           1           1           2
           2
 (3.566268718567203E-005,-1.095096939255694E-004)           1           1
           2           3
 (2.301098278018239E-005,-4.081668204747430E-006)           1           1
           2          12
 (-1.728991515185442E-005,8.437371805189289E-007)           1           1
           2          13
 (2.025033736652800E-006,1.559805893250836E-004)           1           1
           2          20
 (7.378523057292952E-002,-2.033888386237623E-018)           1           2
           2           1
 (1.315620229329549E-002,3.895336653755533E-003)           1           2
           2          14
 (1.715389180495812E-002,3.084994931335152E-002)           1           2
           2          15
 (4.899765252566375E-003,-1.026922825530736E-002)           1           2
           2          16
 (3.164541015571678E-004,-9.717288433197239E-004)           1           3
           2           1
 (8.455112558640468E-004,-1.228771510595090E-003)           1           3
           2          14
 (4.605941088248684E-003,-8.984394342118002E-004)           1           3
           2          15
 (-1.055948861767329E-003,-1.003696062744105E-003)           1           3
           2          16
 (-9.954237935729403E-003,-7.569469596652453E-003)           1           3
           2          19
 (1.017118637493454E-002,1.815625262388737E-002)           1           4
           2           5
 (-5.569615383442736E-002,-6.883134839091955E-003)           1           4
           2           7
 (1.068374587042871E-003,-1.114131963921379E-003)           1           4
           2           9
 (-7.455965621527900E-003,-2.523060346217078E-002)           1           4
           2          11
 (9.099397125285737E-003,1.586432015549561E-002)           1           4
           2          18
 (5.086269007258335E-003,9.079355379937551E-003)           1           5
           2           4
 (-4.176805043118005E-002,-5.161848791941728E-003)           1           5
           2           6
 (9.630427209172400E-004,-1.004288381124415E-003)           1           5
           2           8
 (-7.043326051192167E-003,-2.383425049004247E-002)           1           5
           2          10
 (6.384508659709473E-003,1.113105354145304E-002)           1           5
           2          17
 (-2.984536391963957E-002,-3.688404292536680E-003)           1           6
           2           5
 (5.126047364596444E-003,-5.430488981121146E-003)           1           6
           2           7
 (-1.107303908690732E-004,-6.345902558395069E-004)           1           6
           2           9
 (-9.621372580242604E-003,-3.471444245257604E-003)           1           6
           2          11
 (-6.554517315694913E-003,-7.427722493162476E-004)           1           6
           2          18
 (-3.973226141996621E-002,-4.910257463310867E-003)           1           7
           2           4
 (6.030011532153661E-003,-6.388146055681860E-003)           1           7
           2           6
 (-1.263101018192437E-004,-7.238800135851866E-004)           1           7
           2           8
 (-6.905229686971407E-003,-2.491446034226503E-003)           1           7
           2          10
 (9.666543257427977E-004,1.095408150883553E-004)           1           7
           2          17
 (1.052392931819316E-003,-1.097464423999409E-003)           1           8
           2           5
 (-1.155229529435451E-004,-6.620622467286706E-004)           1           8
           2           7
 (-1.699553714248765E-002,-8.606008814390109E-003)           1           8
           2           9
 (1.494960155981933E-003,-9.859759451951739E-004)           1           8
           2          11
 (2.814817012393702E-004,-2.995477413599178E-004)           1           8
           2          18
 (6.026242485752149E-004,-6.284344535791625E-004)           1           9
           2           4
 (-1.117553459091211E-004,-6.404711115418861E-004)           1           9
           2           6
 (-1.973756078572252E-002,-9.994483320458486E-003)           1           9
           2           8
 (1.264865674224831E-003,-8.342195158357626E-004)           1           9
           2          10
 (-4.558622086121995E-005,4.851136489798946E-005)           1           9
           2          17
 (-1.076797216927194E-002,-3.643826081029500E-002)           1          10
           2           5
 (4.928584891889628E-004,1.778321643050376E-004)           1          10
           2           7
 (1.405314385553376E-003,-9.268510947030033E-004)           1          10
           2           9
 (-1.555739204076655E-003,-2.426521804169483E-002)           1          10
           2          11
 (-5.418142721296083E-003,-1.767457928969630E-002)           1          10
           2          18
 (-2.777014765344866E-003,-9.397276489953549E-003)           1          11
           2           4
 (-4.310145196635792E-003,-1.555126207450608E-003)           1          11
           2           6
 (1.114928680852805E-003,-7.353304525081187E-004)           1          11
           2           8
 (-9.979302230944962E-004,-1.556494058201556E-002)           1          11
           2          10
 (-1.283080934949937E-003,-4.185550398585007E-003)           1          11
           2          17
 (-1.024753280431660E-004,1.817698573009953E-005)           1          12
           2           1
 (1.960890317516352E-002,2.211503949633185E-003)           1          12
           2          14
 (-3.733716763765946E-003,-4.589304862906456E-003)           1          12
           2          15
 (-1.300835632081388E-003,4.711448390922739E-003)           1          12
           2          16
 (5.195660263566359E-005,-3.223790082123171E-004)           1          12
           2          19
 (5.547149739030648E-005,-2.707061344697492E-006)           1          13
           2           1
 (-2.619890055763370E-003,-6.386247842236515E-004)           1          13
           2          14
 (3.883045541099070E-003,6.240371006933892E-003)           1          13
           2          15
 (-7.571573901417371E-003,1.811120295036162E-002)           1          13
           2          16
 (2.553525923378438E-004,-8.658112531443336E-004)           1          13
           2          19
 (3.528011963159352E-003,1.044586682818086E-003)           1          14
           2           2
 (2.294356869233148E-004,-3.334355564678817E-004)           1          14
           2           3
 (1.784879624452627E-002,2.012997995197710E-003)           1          14
           2          12
 (-2.394670491663151E-003,-5.837252284338686E-004)           1          14
           2          13
 (3.090422237753685E-005,-1.095912577980436E-004)           1          14
           2          20
 (4.547829440213891E-003,8.178921752100873E-003)           1          15
           2           2
 (1.448742840073293E-003,-2.825838070591730E-004)           1          15
           2           3
 (-3.377080039777674E-003,-4.150947274848342E-003)           1          15
           2          12
 (3.507452787310047E-003,5.636733490353023E-003)           1          15
           2          13
 (1.302046916940703E-003,-2.728916311223254E-003)           1          16
           2           2
 (-3.799826118235490E-004,-3.611416151447316E-004)           1          16
           2           3
 (-1.180724399060751E-003,4.276430974325536E-003)           1          16
           2          12
 (-6.885748293454085E-003,1.647069322180942E-002)           1          16
           2          13
 (-3.362968729997644E-004,-1.549591579560579E-004)           1          16
           2          20
 (1.072503983508107E-002,1.869854017869489E-002)           1          17
           2           5
 (7.442832516313449E-004,8.433959915340544E-005)           1          17
           2           7
 (-3.748434185625987E-004,3.988993689021680E-004)           1          17
           2           9
 (2.676615363478038E-003,8.731421704839270E-003)           1          17
           2          11
 (6.438974594111635E-003,1.096733551299344E-002)           1          17
           2          18
 (3.005318195897754E-003,5.239614598335716E-003)           1          18
           2           4
 (-1.281903412450763E-003,-1.452681897175466E-004)           1          18
           2           6
 (1.773796043239041E-005,-1.887693511581073E-005)           1          18
           2           8
 (-1.493454332460291E-003,-4.871811384840640E-003)           1          18
           2          10
 (4.673027303792856E-003,7.959444884022816E-003)           1          18
           2          17
 (-2.363226633532107E-005,6.781272683747807E-005)           1          19
           2           2
 (-3.030921582125876E-003,-2.304789120778737E-003)           1          19
           2           3
 (3.270474254962832E-005,-2.029279596945744E-004)           1          19
           2          12
 (2.148112009747695E-004,-7.283318334998567E-004)           1          19
           2          13
 (2.307952550170542E-004,7.619413286593051E-005)           1          19
           2          20
 (9.804131581136041E-007,7.556197924863675E-005)           1          20
           2           1
 (3.233788023881584E-005,-1.146730940243988E-004)           1          20
           2          14
 (3.565700846071978E-005,-2.037430558251485E-005)           1          20
           2          15
 (-3.708221946719338E-004,-1.708755959919362E-004)           1          20
           2          16
 (8.143270621662571E-004,2.711230184069983E-004)           1          20
           2          19
 (3.566268718567123E-005,1.095096939255689E-004)           1           1
           3           2
 (0.387627367579400,2.938606512308963E-022)           1           1           3
           3
 (-3.094700374334378E-005,-5.796631631793652E-005)           1           1
           3          12
 (1.487099815764822E-003,-5.057474126033286E-004)           1           1
           3          20
 (3.164541015571649E-004,9.717288433197200E-004)           1           2
           3           1
 (3.078762188885426E-005,1.141247570830060E-003)           1           2
           3          14
 (-2.598937681606575E-003,2.798108800947659E-003)           1           2
           3          15
 (1.674668407065807E-003,2.193527527577017E-004)           1           2
           3          16
 (-1.866941478550866E-002,-3.824273682185420E-004)           1           2
           3          19
 (5.490266248460578E-002,-9.974834186379592E-019)           1           3
           3           1
 (-1.603798257503038E-002,-4.748585192600894E-003)           1           3
           3          14
 (-2.131972575421716E-002,-3.834183172119346E-002)           1           3
           3          15
 (-6.014020502252927E-003,1.260438632066521E-002)           1           3
           3          16
 (-1.547987498429467E-005,4.445458036567141E-005)           1           3
           3          19
 (1.614850134573123E-002,-1.749762278258301E-002)           1           4
           3           5
 (-7.079983283584562E-003,-3.644599800949003E-002)           1           4
           3           7
 (-1.273022295669656E-003,-6.143259777209884E-004)           1           4
           3           9
 (-4.262693745417018E-002,2.929832447156313E-002)           1           4
           3          11
 (8.667477509279133E-003,-9.584408748475900E-003)           1           4
           3          18
 (1.068705861606573E-002,-1.157991938492371E-002)           1           5
           3           4
 (-5.624012689714388E-003,-2.895101970250651E-002)           1           5
           3           6
 (-8.395032495689965E-004,-4.051217366194755E-004)           1           5
           3           8
 (-2.956391248550725E-002,2.031985534526337E-002)           1           5
           3          10
 (8.573876508035799E-003,-9.480905438270751E-003)           1           5
           3          17
 (-3.830500314496623E-004,-1.971806387119884E-003)           1           6
           3           5
 (-1.070270574709680E-003,-5.061241869144681E-004)           1           6
           3           7
 (3.424943497118213E-004,-1.816194343165363E-004)           1           6
           3           9
 (1.666195238569278E-004,-5.297622097536616E-003)           1           6
           3          11
 (-2.896444622195416E-003,-1.414402057796606E-002)           1           6
           3          18
 (-5.539336388507272E-003,-2.851513528966083E-002)           1           7
           3           4
 (-6.024803716164928E-003,-2.849124850389847E-003)           1           7
           3           6
 (4.094115975338458E-004,-2.171036953112270E-004)           1           7
           3           8
 (-1.496973082181173E-004,4.760152687817677E-003)           1           7
           3          10
 (-1.765904325673629E-003,-8.623319142689285E-003)           1           7
           3          17
 (-7.812799951222357E-004,-3.770232207247240E-004)           1           8
           3           5
 (2.089064705677322E-004,-1.107784347397567E-004)           1           8
           3           7
 (9.355981817099896E-004,-6.031204206983364E-003)           1           8
           3           9
 (4.833052821076304E-004,3.852002836360363E-004)           1           8
           3          11
 (1.052253276756009E-003,4.947212182652802E-004)           1           8
           3          18
 (-1.798999381317892E-004,-8.681638043038167E-005)           1           9
           3           4
 (3.907918333023413E-004,-2.072306493923222E-004)           1           9
           3           6
 (1.618655189266836E-003,-1.043442970319204E-002)           1           9
           3           8
 (4.272674263847337E-004,3.405403965807110E-004)           1           9
           3          10
 (2.502865552078004E-004,1.176727075972854E-004)           1           9
           3          17
 (-2.632833610872940E-002,1.809598026040090E-002)           1          10
           3           5
 (-2.917004969148886E-004,9.275440153899518E-003)           1          10
           3           7
 (6.901018693578216E-004,5.500216160852297E-004)           1          10
           3           9
 (2.502075245859227E-002,-9.960435383448069E-003)           1          10
           3          11
 (2.496014794048064E-002,-1.753013470002533E-002)           1          10
           3          18
 (-1.502733611476701E-002,1.032858297770518E-002)           1          11
           3           4
 (-7.932335409135289E-005,2.522382513855334E-003)           1          11
           3           6
 (5.667433349714932E-004,4.517042013768764E-004)           1          11
           3           8
 (1.545965461886642E-002,-6.154287292115678E-003)           1          11
           3          10
 (5.961337716967885E-003,-4.186795228869248E-003)           1          11
           3          17
 (9.832455359083424E-005,1.841685147454283E-004)           1          12
           3           1
 (1.742956466817035E-004,8.487855048607592E-004)           1          12
           3          14
 (2.428042219347851E-004,-3.763214863310099E-004)           1          12
           3          15
 (-3.570027859608436E-004,1.622954697601246E-005)           1          12
           3          16
 (-2.571006999526711E-003,4.017847866476036E-004)           1          12
           3          19
 (3.740201660134686E-005,9.829474409703859E-005)           1          13
           3           1
 (-1.533301446257313E-005,-2.020569569138264E-004)           1          13
           3          14
 (-9.557742031647304E-005,1.138118484503592E-004)           1          13
           3          15
 (-1.309967822107286E-003,-1.065774086735066E-004)           1          13
           3          16
 (-1.042416753232014E-002,2.924279718334412E-004)           1          13
           3          19
 (1.033601800969400E-005,3.831250551749066E-004)           1          14
           3           2
 (-5.629539452570200E-003,-1.666814819828961E-003)           1          14
           3           3
 (1.687612992042680E-004,8.218386757754167E-004)           1          14
           3          12
 (-1.258430427742173E-005,-1.658338527517409E-004)           1          14
           3          13
 (-3.592623076319169E-003,1.436344853365940E-004)           1          14
           3          20
 (-8.459743652529225E-004,9.108180903849035E-004)           1          15
           3           2
 (-7.536112774316811E-003,-1.355309158856717E-002)           1          15
           3           3
 (1.338435380936566E-004,-2.074318584731923E-004)           1          15
           3          12
 (-1.375648650926327E-004,1.636596581183773E-004)           1          15
           3          13
 (-3.440859320008433E-003,-3.113654734897268E-003)           1          15
           3          20
 (4.915442546676639E-004,6.440025674735457E-005)           1          16
           3           2
 (-2.112846293148895E-003,4.428145431182333E-003)           1          16
           3           3
 (-2.517843313609059E-004,1.145466406451379E-005)           1          16
           3          12
 (-1.152724699689371E-003,-9.377373019441943E-005)           1          16
           3          13
 (-2.262581344398797E-004,1.920457611837087E-003)           1          16
           3          20
 (1.066713933474061E-002,-1.179561177182074E-002)           1          17
           3           5
 (-1.093548440592309E-003,-5.340037301140408E-003)           1          17
           3           7
 (-1.723506396955567E-004,-8.103182004579387E-005)           1          17
           3           9
 (-5.073629677342536E-003,3.563339341519669E-003)           1          17
           3          11
 (-1.602209837399787E-002,1.808156282532821E-002)           1          17
           3          18
 (3.912415882097344E-003,-4.326310534767253E-003)           1          18
           3           4
 (-9.622885330686054E-004,-4.699074890246588E-003)           1          18
           3           6
 (1.479073371281872E-004,6.953899311791050E-005)           1          18
           3           8
 (5.319694413019200E-003,-3.736152924232059E-003)           1          18
           3          10
 (-1.058057042131769E-002,1.194058609454934E-002)           1          18
           3          17
 (-3.830116292585995E-003,-7.845465404252976E-005)           1          19
           3           2
 (4.073854488322075E-005,-1.168912352950960E-004)           1          19
           3           3
 (-2.070756110922823E-003,3.236098737051683E-004)           1          19
           3          12
 (-8.309499258226972E-003,2.331029894277787E-004)           1          19
           3          13
 (1.503641475503899E-006,-1.907406483309998E-004)           1          19
           3          20
 (5.920319582667921E-004,-2.013440186874164E-004)           1          20
           3           1
 (-3.740139384194251E-003,1.495321147352272E-004)           1          20
           3          14
 (-4.379889589587673E-003,-3.963349797519502E-003)           1          20
           3          15
 (-2.622867544523252E-004,2.225670831777969E-003)           1          20
           3          16
 (1.445562008586558E-006,-1.825856194663008E-004)           1          20
           3          19
 (0.389227070902571,6.897380962479608E-023)           1           1           4
           4
 (-3.575088629789129E-005,4.866519710212094E-005)           1           1
           4           6
 (-1.915794155535606E-005,-6.288696850256196E-005)           1           1
           4           8
 (-3.781646176618917E-004,-8.587962710026624E-005)           1           1
           4          10
 (2.159510779614116E-003,-2.185581823492153E-005)           1           1
           4          17
 (-4.251654885001345E-002,-3.820215425521535E-002)           1           2
           4           5
 (1.288634077862122E-002,-2.681937820423641E-003)           1           2
           4           7
 (2.128715573468977E-004,-4.565613763063066E-004)           1           2
           4           9
 (-1.588701922279474E-002,-2.246722026306113E-002)           1           2
           4          11
 (-2.806267640148930E-002,-2.470633132172837E-002)           1           2
           4          18
 (-3.308257022543781E-002,1.911649786158320E-002)           1           3
           4           5
 (-1.347593767149929E-003,1.224218728185138E-002)           1           3
           4           7
 (3.013089169099888E-004,2.813262411589381E-004)           1           3
           4           9