&FCI NORB= 12,NELEC= 12,MS2= 0,
ORBSYM= 1,1,1,1,1,1,1,1,1,1,1,1,
&END
16.000000000  1  1  1  1
16.000000000  2  2  2  2
16.000000000  3  3  3  3
16.000000000  4  4  4  4
16.000000000  5  5  5  5
16.000000000  6  6  6  6
16.000000000  7  7  7  7
16.000000000  8  8  8  8
16.000000000  9  9  9  9
16.000000000  10  10  10  10
16.000000000  11  11  11  11
16.000000000  12  12  12  12
-1.0000000000000000  1  2  0  0
-1.0000000000000000  1  5  0  0
-1.0000000000000000  1  9  0  0
-1.0000000000000000  2  1  0  0
-1.0000000000000000  2  3  0  0
-1.0000000000000000  2  6  0  0
-1.0000000000000000  2  10  0  0
-1.0000000000000000  3  2  0  0
-1.0000000000000000  3  4  0  0
-1.0000000000000000  3  7  0  0
-1.0000000000000000  3  11  0  0
-1.0000000000000000  4  3  0  0
-1.0000000000000000  4  8  0  0
-1.0000000000000000  4  12  0  0
-1.0000000000000000  5  1  0  0
-1.0000000000000000  5  6  0  0
-1.0000000000000000  5  9  0  0
-1.0000000000000000  6  2  0  0
-1.0000000000000000  6  5  0  0
-1.0000000000000000  6  7  0  0
-1.0000000000000000  6  10  0  0
-1.0000000000000000  7  3  0  0
-1.0000000000000000  7  6  0  0
-1.0000000000000000  7  8  0  0
-1.0000000000000000  7  11  0  0
-1.0000000000000000  8  4  0  0
-1.0000000000000000  8  7  0  0
-1.0000000000000000  8  12  0  0
-1.0000000000000000  9  1  0  0
-1.0000000000000000  9  5  0  0
-1.0000000000000000  9  10  0  0
-1.0000000000000000  10  2  0  0
-1.0000000000000000  10  6  0  0
-1.0000000000000000  10  9  0  0
-1.0000000000000000  10  11  0  0
-1.0000000000000000  11  3  0  0
-1.0000000000000000  11  7  0  0
-1.0000000000000000  11  10  0  0
-1.0000000000000000  11  12  0  0
-1.0000000000000000  12  4  0  0
-1.0000000000000000  12  8  0  0
-1.0000000000000000  12  11  0  0
