  &FCI NORB=  6,NELEC=  6,MS2=  0,
  ORBSYM= 1, 1, 1, 1, 1, 1,
  ISYM=0
 &END
    0.70509051005        1    1    1    1
   -0.81173606846E-02    2    1    1    1
    0.22630693531E-02    2    1    2    1
    0.25993314396        2    2    1    1
   -0.81366067898E-02    2    2    2    1
    0.71573266573        2    2    2    2
    0.75113153020E-03    3    1    1    1
   -0.10598257314E-03    3    1    2    1
   -0.69042174471E-03    3    1    2    2
    0.15985386485E-04    3    1    3    1
   -0.28330703849E-02    3    2    1    1
   -0.10758627145E-03    3    2    2    1
   -0.81366067898E-02    3    2    2    2
   -0.10598257314E-03    3    2    3    1
    0.22630693531E-02    3    2    3    2
    0.13124935506        3    3    1    1
   -0.28330703849E-02    3    3    2    1
    0.25993314396        3    3    2    2
    0.75113153020E-03    3    3    3    1
   -0.81173606846E-02    3    3    3    2
    0.70509051005        3    3    3    3
   -0.78646208467E-02    4    1    1    1
    0.38667796899E-03    4    1    2    1
    0.75967244894E-03    4    1    2    2
   -0.30784194868E-04    4    1    3    1
   -0.82956334496E-05    4    1    3    2
    0.23062662636E-03    4    1    3    3
    0.22178255294E-02    4    1    4    1
    0.14881100804E-02    4    2    1    1
    0.11835379620E-03    4    2    2    1
   -0.13843780010E-02    4    2    2    2
   -0.12243235550E-05    4    2    3    1
   -0.14856274441E-05    4    2    3    2
   -0.40842315728E-03    4    2    3    3
    0.11746139189E-03    4    2    4    1
    0.72048124133E-04    4    2    4    2
   -0.10493140624E-03    4    3    1    1
   -0.18699117349E-05    4    3    2    1
   -0.14165524846E-03    4    3    2    2
    0.19665608017E-05    4    3    3    1
   -0.22513924235E-04    4    3    3    2
    0.19015773929E-03    4    3    3    3
   -0.74265606982E-05    4    3    4    1
   -0.40012711164E-05    4    3    4    2
    0.93426825145E-06    4    3    4    3
    0.25830054068        4    4    1    1
    0.71799051759E-03    4    4    2    1
    0.18418041702        4    4    2    2
   -0.67611768609E-04    4    4    3    1
   -0.88303363684E-03    4    4    3    2
    0.11708324341        4    4    3    3
   -0.78646208467E-02    4    4    4    1
   -0.13431552498E-02    4    4    4    2
    0.19015773929E-03    4    4    4    3
    0.70509051005        4    4    4    4
   -0.13431552498E-02    5    1    1    1
    0.12272429308E-03    5    1    2    1
    0.15558886722E-02    5    1    2    2
   -0.10841197383E-04    5    1    3    1
   -0.48936808249E-04    5    1    3    2
    0.88179600021E-04    5    1    3    3
    0.11746139189E-03    5    1    4    1
    0.21983272707E-04    5    1    4    2
   -0.15043946652E-05    5    1    4    3
    0.14881100804E-02    5    1    4    4
    0.72048124133E-04    5    1    5    1
    0.11397321103E-02    5    2    1    1
    0.40002587498E-03    5    2    2    1
   -0.72232730487E-02    5    2    2    2
   -0.21206919702E-04    5    2    3    1
    0.40002587498E-03    5    2    3    2
    0.11397321103E-02    5    2    3    3
    0.17517969402E-03    5    2    4    1
    0.12485485422E-03    5    2    4    2
   -0.14722262393E-04    5    2    4    3
    0.11397321103E-02    5    2    4    4
    0.12485485422E-03    5    2    5    1
    0.21238958094E-02    5    2    5    2
    0.88179600021E-04    5    3    1    1
   -0.48936808249E-04    5    3    2    1
    0.15558886722E-02    5    3    2    2
   -0.10841197383E-04    5    3    3    1
    0.12272429308E-03    5    3    3    2
   -0.13431552498E-02    5    3    3    3
    0.77357360775E-06    5    3    4    1
   -0.15934942783E-04    5    3    4    2
   -0.40012711164E-05    5    3    4    3
   -0.40842315728E-03    5    3    4    4
    0.36956659991E-05    5    3    5    1
    0.12485485422E-03    5    3    5    2
    0.72048124133E-04    5    3    5    3
    0.71799051759E-03    5    4    1    1
    0.17245194743E-03    5    4    2    1
    0.80133522193E-03    5    4    2    2
   -0.78114043705E-05    5    4    3    1
   -0.91966009273E-04    5    4    3    2
   -0.88303363684E-03    5    4    3    3
    0.38667796899E-03    5    4    4    1
    0.12272429308E-03    5    4    4    2
   -0.22513924235E-04    5    4    4    3
   -0.81173606846E-02    5    4    4    4
    0.11835379620E-03    5    4    5    1
    0.40002587498E-03    5    4    5    2
   -0.14856274441E-05    5    4    5    3
    0.22630693531E-02    5    4    5    4
    0.18418041702        5    5    1    1
    0.80133522193E-03    5    5    2    1
    0.25908223900        5    5    2    2
   -0.36127609660E-03    5    5    3    1
    0.80133522193E-03    5    5    3    2
    0.18418041702        5    5    3    3
    0.75967244894E-03    5    5    4    1
    0.15558886722E-02    5    5    4    2
   -0.14165524846E-03    5    5    4    3
    0.25993314396        5    5    4    4
   -0.13843780010E-02    5    5    5    1
   -0.72232730487E-02    5    5    5    2
   -0.13843780010E-02    5    5    5    3
   -0.81366067898E-02    5    5    5    4
    0.71573266573        5    5    5    5
    0.19015773929E-03    6    1    1    1
   -0.22513924235E-04    6    1    2    1
   -0.14165524846E-03    6    1    2    2
    0.19665608017E-05    6    1    3    1
   -0.18699117349E-05    6    1    3    2
   -0.10493140624E-03    6    1    3    3
   -0.74265606982E-05    6    1    4    1
   -0.15043946652E-05    6    1    4    2
    0.24324174201E-06    6    1    4    3
   -0.10493140624E-03    6    1    4    4
   -0.40012711164E-05    6    1    5    1
   -0.14722262393E-04    6    1    5    2
   -0.15043946652E-05    6    1    5    3
   -0.18699117349E-05    6    1    5    4
   -0.14165524846E-03    6    1    5    5
    0.93426825145E-06    6    1    6    1
   -0.40842315728E-03    6    2    1    1
   -0.14856274441E-05    6    2    2    1
   -0.13843780010E-02    6    2    2    2
   -0.12243235550E-05    6    2    3    1
    0.11835379620E-03    6    2    3    2
    0.14881100804E-02    6    2    3    3
    0.77357360775E-06    6    2    4    1
    0.36956659991E-05    6    2    4    2
   -0.15043946652E-05    6    2    4    3
    0.88179600021E-04    6    2    4    4
   -0.15934942783E-04    6    2    5    1
    0.12485485422E-03    6    2    5    2
    0.21983272707E-04    6    2    5    3
   -0.48936808249E-04    6    2    5    4
    0.15558886722E-02    6    2    5    5
   -0.40012711164E-05    6    2    6    1
    0.72048124133E-04    6    2    6    2
    0.23062662636E-03    6    3    1    1
   -0.82956334496E-05    6    3    2    1
    0.75967244894E-03    6    3    2    2
   -0.30784194868E-04    6    3    3    1
    0.38667796899E-03    6    3    3    2
   -0.78646208467E-02    6    3    3    3
    0.11868387859E-04    6    3    4    1
    0.77357360775E-06    6    3    4    2
   -0.74265606982E-05    6    3    4    3
    0.23062662636E-03    6    3    4    4
    0.77357360775E-06    6    3    5    1
    0.17517969402E-03    6    3    5    2
    0.11746139189E-03    6    3    5    3
   -0.82956334496E-05    6    3    5    4
    0.75967244894E-03    6    3    5    5
   -0.74265606982E-05    6    3    6    1
    0.11746139189E-03    6    3    6    2
    0.22178255294E-02    6    3    6    3
   -0.67611768609E-04    6    4    1    1
   -0.78114043705E-05    6    4    2    1
   -0.36127609660E-03    6    4    2    2
    0.18300359049E-05    6    4    3    1
   -0.78114043705E-05    6    4    3    2
   -0.67611768609E-04    6    4    3    3
   -0.30784194868E-04    6    4    4    1
   -0.10841197383E-04    6    4    4    2
    0.19665608017E-05    6    4    4    3
    0.75113153020E-03    6    4    4    4
   -0.12243235550E-05    6    4    5    1
   -0.21206919702E-04    6    4    5    2
   -0.12243235550E-05    6    4    5    3
   -0.10598257314E-03    6    4    5    4
   -0.69042174471E-03    6    4    5    5
    0.19665608017E-05    6    4    6    1
   -0.10841197383E-04    6    4    6    2
   -0.30784194868E-04    6    4    6    3
    0.15985386485E-04    6    4    6    4
   -0.88303363684E-03    6    5    1    1
   -0.91966009273E-04    6    5    2    1
    0.80133522193E-03    6    5    2    2
   -0.78114043705E-05    6    5    3    1
    0.17245194743E-03    6    5    3    2
    0.71799051759E-03    6    5    3    3
   -0.82956334496E-05    6    5    4    1
   -0.48936808249E-04    6    5    4    2
   -0.18699117349E-05    6    5    4    3
   -0.28330703849E-02    6    5    4    4
   -0.14856274441E-05    6    5    5    1
    0.40002587498E-03    6    5    5    2
    0.11835379620E-03    6    5    5    3
   -0.10758627145E-03    6    5    5    4
   -0.81366067898E-02    6    5    5    5
   -0.22513924235E-04    6    5    6    1
    0.12272429308E-03    6    5    6    2
    0.38667796899E-03    6    5    6    3
   -0.10598257314E-03    6    5    6    4
    0.22630693531E-02    6    5    6    5
    0.11708324341        6    6    1    1
   -0.88303363684E-03    6    6    2    1
    0.18418041702        6    6    2    2
   -0.67611768609E-04    6    6    3    1
    0.71799051759E-03    6    6    3    2
    0.25830054068        6    6    3    3
    0.23062662636E-03    6    6    4    1
    0.88179600021E-04    6    6    4    2
   -0.10493140624E-03    6    6    4    3
    0.13124935506        6    6    4    4
   -0.40842315728E-03    6    6    5    1
    0.11397321103E-02    6    6    5    2
    0.14881100804E-02    6    6    5    3
   -0.28330703849E-02    6    6    5    4
    0.25993314396        6    6    5    5
    0.19015773929E-03    6    6    6    1
   -0.13431552498E-02    6    6    6    2
   -0.78646208467E-02    6    6    6    3
    0.75113153020E-03    6    6    6    4
   -0.81173606846E-02    6    6    6    5
    0.70509051005        6    6    6    6
    -1.4373964891        1    1    0    0
   -0.53001564982E-01    2    1    0    0
    -1.6329699878        2    2    0    0
    0.66637435304E-02    3    1    0    0
   -0.53001564982E-01    3    2    0    0
    -1.4373964891        3    3    0    0
   -0.56439257513E-01    4    1    0    0
   -0.38607925466E-02    4    2    0    0
    0.13693069000E-02    4    3    0    0
    -1.4373964891        4    4    0    0
   -0.38607925466E-02    5    1    0    0
   -0.58034275017E-01    5    2    0    0
   -0.38607925466E-02    5    3    0    0
   -0.53001564982E-01    5    4    0    0
    -1.6329699878        5    5    0    0
    0.13693069000E-02    6    1    0    0
   -0.38607925466E-02    6    2    0    0
   -0.56439257513E-01    6    3    0    0
    0.66637435304E-02    6    4    0    0
   -0.53001564982E-01    6    5    0    0
    -1.4373964891        6    6    0    0
     3.1017336739        0    0    0    0
