&FCI NORB= 8,NELEC= 8,MS2= 0,
ORBSYM= 1,1,1,1,1,1,1,1,
&END
16.000000000  1  1  1  1
16.000000000  2  2  2  2
16.000000000  3  3  3  3
16.000000000  4  4  4  4
16.000000000  5  5  5  5
16.000000000  6  6  6  6
16.000000000  7  7  7  7
16.000000000  8  8  8  8
-1.0000000000000000  1  3  0  0
-1.0000000000000000  2  3  0  0
-1.0000000000000000  2  5  0  0
-1.0000000000000000  3  1  0  0
-1.0000000000000000  3  2  0  0
-1.0000000000000000  3  4  0  0
-1.0000000000000000  3  6  0  0
-1.0000000000000000  4  3  0  0
-1.0000000000000000  4  7  0  0
-1.0000000000000000  5  2  0  0
-1.0000000000000000  5  6  0  0
-1.0000000000000000  6  3  0  0
-1.0000000000000000  6  5  0  0
-1.0000000000000000  6  7  0  0
-1.0000000000000000  6  8  0  0
-1.0000000000000000  7  4  0  0
-1.0000000000000000  7  6  0  0
-1.0000000000000000  8  6  0  0
