 &FCI NORB=           32 ,NELEC=          32 ,MS2=            0 ,
  ORBSYM=
                      0,                      0,                      0,                      0,                      0,                      0,                      0,                      0,                      0,                      0,                      0,                      0,                      0,                      0,                      0,                      0,                      0,                      0,                      0,                      0,                      0,                      0,                      0,                      0,                      0,                      0,                      0,                      0,                      0,                      0,                      0,                      0,
  ISYM=           1
 &END
   0.387096478815      1  1  1  1
   0.417304133163E-04  1  1  1 15
   0.716702431619E-01  1  2  1  2
   0.239254064181E-03  1  2  1 12
  -0.278010600711E-03  1  2  1 13
   0.625291363719E-03  1  2  1 31
   0.736249676927E-02  1  2  1 32
   0.716702431625E-01  1  3  1  3
   0.278010601123E-03  1  3  1 12
   0.239254064109E-03  1  3  1 13
   0.736249676710E-02  1  3  1 31
  -0.625291363659E-03  1  3  1 32
   0.548751824038E-01  1  4  1  4
  -0.447406450739E-02  1  4  1 21
  -0.180354677722E-03  1  4  1 22
  -0.141707808686E-02  1  4  1 26
  -0.103295489542E-03  1  4  1 27
   0.548751824037E-01  1  5  1  5
  -0.180354677691E-03  1  5  1 21
   0.447406450707E-02  1  5  1 22
  -0.103295489488E-03  1  5  1 26
   0.141707808669E-02  1  5  1 27
   0.488823515573E-01  1  6  1  6
   0.566157857098E-02  1  6  1 20
   0.492510728900E-01  1  7  1  7
   0.510584403200E-02  1  7  1 23
   0.228272114097E-01  1  8  1  8
   0.228463277312E-01  1  9  1  9
   0.181102638860E-01  1 10  1 10
   0.181102638860E-01  1 11  1 11
   0.239254064181E-03  1 12  1  2
   0.278010601123E-03  1 12  1  3
   0.181368546364E-01  1 12  1 12
  -0.132197668272E-04  1 12  1 31
  -0.278010600711E-03  1 13  1  2
   0.239254064109E-03  1 13  1  3
   0.181368546368E-01  1 13  1 13
   0.132197671523E-04  1 13  1 32
   0.155880338091E-01  1 14  1 14
   0.417304133163E-04  1 15  1  1
   0.156065847832E-01  1 15  1 15
   0.156252516126E-01  1 16  1 16
   0.127564567972E-01  1 17  1 17
   0.127747720838E-01  1 18  1 18
   0.127913741839E-01  1 19  1 19
  -0.414099791924E-03  1 19  1 28
   0.566157857098E-02  1 20  1  6
   0.164885422612E-01  1 20  1 20
  -0.447406450739E-02  1 21  1  4
  -0.180354677691E-03  1 21  1  5
   0.173581976335E-01  1 21  1 21
   0.252057896059E-02  1 21  1 26
   0.818852629440E-04  1 21  1 27
  -0.180354677722E-03  1 22  1  4
   0.447406450707E-02  1 22  1  5
   0.173581976352E-01  1 22  1 22
  -0.818852629221E-04  1 22  1 26
   0.252057896057E-02  1 22  1 27
   0.510584403200E-02  1 23  1  7
   0.162080660869E-01  1 23  1 23
   0.107779485013E-01  1 24  1 24
   0.107779485013E-01  1 25  1 25
  -0.141707808686E-02  1 26  1  4
  -0.103295489488E-03  1 26  1  5
   0.252057896059E-02  1 26  1 21
  -0.818852629221E-04  1 26  1 22
   0.117295864171E-01  1 26  1 26
  -0.103295489542E-03  1 27  1  4
   0.141707808669E-02  1 27  1  5
   0.818852629440E-04  1 27  1 21
   0.252057896057E-02  1 27  1 22
   0.117295864167E-01  1 27  1 27
  -0.414099791924E-03  1 28  1 19
   0.193634591465E-01  1 28  1 28
   0.796352706656E-02  1 29  1 29
   0.795993575474E-02  1 30  1 30
   0.625291363719E-03  1 31  1  2
   0.736249676710E-02  1 31  1  3
  -0.132197668272E-04  1 31  1 12
   0.903374873198E-02  1 31  1 31
   0.736249676927E-02  1 32  1  2
  -0.625291363659E-03  1 32  1  3
   0.132197671523E-04  1 32  1 13
   0.903374873238E-02  1 32  1 32
   0.388737713962      1  1  2  2
   0.154342508480E-04  1  1  2 12
  -0.179344785076E-04  1  1  2 13
  -0.342439120880E-04  1  1  2 31
  -0.403205134919E-03  1  1  2 32
  -0.123986105860E-01  1  2  2  6
  -0.219788498741E-01  1  2  2 15
  -0.297460641522E-01  1  2  2 16
  -0.476349446951E-02  1  2  2 20
  -0.648101139742E-01  1  3  2  6
   0.569062211565E-02  1  3  2 16
  -0.248997752085E-01  1  3  2 20
  -0.676854109946E-02  1  3  2 30
  -0.386554843846E-02  1  4  2  7
  -0.375251992161E-02  1  4  2  9
   0.217683413922E-01  1  4  2 17
   0.160788217633E-01  1  4  2 19
  -0.597616529712E-03  1  4  2 23
  -0.163381565569E-01  1  4  2 28
  -0.396132959812E-01  1  5  2  7
   0.407851425382E-01  1  5  2  9
  -0.212420034876E-02  1  5  2 17
   0.147936469463E-02  1  5  2 19
  -0.612424371893E-02  1  5  2 23
  -0.150322530473E-02  1  5  2 28
  -0.850305064754E-02  1  6  2  2
  -0.444472127393E-01  1  6  2  3
   0.271322566774E-01  1  6  2 12
   0.155922015402E-01  1  6  2 13
  -0.540812721465E-02  1  6  2 31
  -0.566105078596E-03  1  6  2 32
  -0.352511177992E-02  1  7  2  4
  -0.361245754956E-01  1  7  2  5
   0.303137626627E-02  1  7  2 21
  -0.218970257768E-01  1  7  2 22
   0.218715079093E-03  1  7  2 26
  -0.127384563301E-02  1  7  2 27
  -0.185229025373E-01  1  8  2 10
   0.147141377682E-01  1  8  2 11
  -0.169894901305E-02  1  9  2  4
   0.184654256500E-01  1  9  2  5
  -0.329151113825E-03  1  9  2 21
  -0.639068109699E-02  1  9  2 22
   0.147464492183E-03  1  9  2 26
   0.776684844605E-02  1  9  2 27
  -0.154669324929E-01  1 10  2  8
   0.144119600746E-01  1 10  2 14
   0.122865503995E-01  1 11  2  8
   0.123993159205E-01  1 11  2 14
   0.108995329728E-01  1 12  2  6
   0.100395925716E-01  1 12  2 15
  -0.552711690865E-02  1 12  2 16
  -0.483736242290E-02  1 12  2 20
   0.572366786588E-02  1 12  2 30
   0.626367783188E-02  1 13  2  6
  -0.116658945219E-01  1 13  2 15
   0.961783089764E-02  1 13  2 16
  -0.277990616202E-02  1 13  2 20
   0.492575113917E-02  1 13  2 30
   0.129677127879E-01  1 14  2 10
   0.111567591488E-01  1 14  2 11
  -0.569592345165E-02  1 15  2  2
   0.910055815151E-02  1 15  2 12
  -0.105747470285E-01  1 15  2 13
   0.429935426341E-03  1 15  2 31
   0.506227699057E-02  1 15  2 32
  -0.769090312966E-02  1 16  2  2
   0.147132149282E-02  1 16  2  3
  -0.490099010438E-02  1 16  2 12
   0.852829684784E-02  1 16  2 13
  -0.771651316658E-03  1 16  2 31
   0.737175618840E-02  1 16  2 32
   0.721010501657E-02  1 17  2  4
  -0.703577149121E-03  1 17  2  5
   0.102508831327E-01  1 17  2 21
   0.141910979373E-02  1 17  2 22
  -0.338788463001E-02  1 17  2 26
  -0.581688549929E-03  1 17  2 27
   0.110822582097E-01  1 18  2 24
  -0.491737382373E-02  1 18  2 25
   0.520810758142E-02  1 19  2  4
   0.479182527656E-03  1 19  2  5
   0.852039194790E-03  1 19  2 21
  -0.438841531366E-04  1 19  2 22
   0.109905904569E-01  1 19  2 26
  -0.208671762295E-03  1 19  2 27
  -0.213573349085E-02  1 20  2  2
  -0.111639226974E-01  1 20  2  3
  -0.505961912588E-03  1 20  2 12
  -0.290763050216E-03  1 20  2 13
  -0.850029059513E-02  1 20  2 31
  -0.889782620985E-03  1 20  2 32
   0.150043377107E-02  1 21  2  7
  -0.102036755121E-04  1 21  2  9
   0.109724249534E-01  1 21  2 17
   0.190204825258E-02  1 21  2 19
   0.156122022873E-02  1 21  2 23
   0.188499918767E-01  1 21  2 28
  -0.108383235927E-01  1 22  2  7
  -0.198110985175E-03  1 22  2  9
   0.151899846078E-02  1 22  2 17
  -0.979647145223E-04  1 22  2 19
  -0.112774122537E-01  1 22  2 23
  -0.970866142794E-03  1 22  2 28
  -0.406562857954E-03  1 23  2  4
  -0.416636735235E-02  1 23  2  5
   0.138883662235E-02  1 23  2 21
  -0.100322061021E-01  1 23  2 22
   0.290838070178E-02  1 23  2 26
  -0.169390618205E-01  1 23  2 27
   0.101213091686E-01  1 24  2 18
   0.527290452129E-02  1 24  2 29
  -0.449098551405E-02  1 25  2 18
   0.759864247742E-02  1 25  2 29
   0.375441091263E-04  1 26  2  7
   0.104059266753E-03  1 26  2  9
  -0.236208179752E-02  1 26  2 17
   0.105643600510E-01  1 26  2 19
   0.249894771755E-02  1 26  2 23
   0.784137963817E-02  1 26  2 28
  -0.218665292608E-03  1 27  2  7
   0.548072627969E-02  1 27  2  9
  -0.405561604619E-03  1 27  2 17
  -0.200579177087E-03  1 27  2 19
  -0.145544322464E-01  1 27  2 23
  -0.148879575780E-03  1 27  2 28
  -0.402565137807E-02  1 28  2  4
  -0.370388240173E-03  1 28  2  5
   0.188334933955E-01  1 28  2 21
  -0.970016390492E-03  1 28  2 22
   0.804421795932E-02  1 28  2 26
  -0.152730743067E-03  1 28  2 27
   0.459664352485E-02  1 29  2 24
   0.662410076054E-02  1 29  2 25
   0.336987157073E-02  1 30  2 12
   0.290008944065E-02  1 30  2 13
  -0.690078539468E-02  1 30  2 31
   0.586078577447E-03  1 30  2 32
  -0.682531540791E-02  1 31  2  6
   0.101652106821E-03  1 31  2 15
  -0.209524325047E-03  1 31  2 16
  -0.779149324946E-02  1 31  2 20
  -0.796242554629E-02  1 31  2 30
  -0.714451701694E-03  1 32  2  6
   0.119690316590E-02  1 32  2 15
   0.200163244281E-02  1 32  2 16
  -0.815588037542E-03  1 32  2 20
   0.676242884956E-03  1 32  2 30
   0.388737713962      1  1  3  3
   0.179344784898E-04  1  1  3 12
   0.154342509010E-04  1  1  3 13
  -0.403205135213E-03  1  1  3 31
   0.342439120457E-04  1  1  3 32
  -0.648101139740E-01  1  2  3  6
   0.569062211559E-02  1  2  3 16
  -0.248997752084E-01  1  2  3 20
   0.676854110019E-02  1  2  3 30
   0.123986105858E-01  1  3  3  6
  -0.219788498761E-01  1  3  3 15
   0.297460641515E-01  1  3  3 16
   0.476349446990E-02  1  3  3 20
  -0.396132959814E-01  1  4  3  7
  -0.407851425381E-01  1  4  3  9
  -0.212420034843E-02  1  4  3 17
  -0.147936469398E-02  1  4  3 19
  -0.612424371934E-02  1  4  3 23
   0.150322530473E-02  1  4  3 28
   0.386554843878E-02  1  5  3  7
  -0.375251992154E-02  1  5  3  9
  -0.217683413922E-01  1  5  3 17
   0.160788217748E-01  1  5  3 19
   0.597616529122E-03  1  5  3 23
  -0.163381565570E-01  1  5  3 28
   0.850305064741E-02  1  6  3  3
   0.155922015403E-01  1  6  3 12
  -0.271322566777E-01  1  6  3 13
   0.566105078222E-03  1  6  3 31
  -0.540812721495E-02  1  6  3 32
  -0.361245754958E-01  1  7  3  4
   0.352511178021E-02  1  7  3  5
   0.218970257767E-01  1  7  3 21
   0.303137626615E-02  1  7  3 22
   0.127384563262E-02  1  7  3 26
   0.218715078480E-03  1  7  3 27
  -0.147141377683E-01  1  8  3 10
  -0.185229025373E-01  1  8  3 11
  -0.184654256502E-01  1  9  3  4
  -0.169894901300E-02  1  9  3  5
  -0.639068109667E-02  1  9  3 21
   0.329151113740E-03  1  9  3 22
   0.776684844622E-02  1  9  3 26
  -0.147464492021E-03  1  9  3 27
  -0.122865503996E-01  1 10  3  8
   0.123993159207E-01  1 10  3 14
  -0.154669324928E-01  1 11  3  8
  -0.144119600746E-01  1 11  3 14
   0.626367783214E-02  1 12  3  6
   0.116658945201E-01  1 12  3 15
   0.961783089878E-02  1 12  3 16
  -0.277990616193E-02  1 12  3 20
  -0.492575113900E-02  1 12  3 30
  -0.108995329737E-01  1 13  3  6
   0.100395925710E-01  1 13  3 15
   0.552711690949E-02  1 13  3 16
   0.483736242291E-02  1 13  3 20
   0.572366786608E-02  1 13  3 30
   0.111567591489E-01  1 14  3 10
  -0.129677127879E-01  1 14  3 11
  -0.569592345261E-02  1 15  3  3
   0.105747470271E-01  1 15  3 12
   0.910055815106E-02  1 15  3 13
   0.506227699174E-02  1 15  3 31
  -0.429935426314E-03  1 15  3 32
   0.769090313012E-02  1 16  3  3
   0.852829684866E-02  1 16  3 12
   0.490099010506E-02  1 16  3 13
  -0.737175618815E-02  1 16  3 31
  -0.771651316459E-03  1 16  3 32
  -0.703577149027E-03  1 17  3  4
  -0.721010501652E-02  1 17  3  5
  -0.141910979352E-02  1 17  3 21
   0.102508831342E-01  1 17  3 22
   0.581688549927E-03  1 17  3 26
  -0.338788462928E-02  1 17  3 27
   0.491737382381E-02  1 18  3 24
   0.110822582097E-01  1 18  3 25
  -0.479182527497E-03  1 19  3  4
   0.520810758415E-02  1 19  3  5
  -0.438841526931E-04  1 19  3 21
  -0.852039197006E-03  1 19  3 22
  -0.208671762507E-03  1 19  3 26
  -0.109905904567E-01  1 19  3 27
   0.213573349088E-02  1 20  3  3
  -0.290763050063E-03  1 20  3 12
   0.505961912649E-03  1 20  3 13
   0.889782621121E-03  1 20  3 31
  -0.850029059507E-02  1 20  3 32
   0.108383235923E-01  1 21  3  7
  -0.198110984998E-03  1 21  3  9
  -0.151899846062E-02  1 21  3 17
  -0.979647141761E-04  1 21  3 19
   0.112774122533E-01  1 21  3 23
  -0.970866142498E-03  1 21  3 28
   0.150043377113E-02  1 22  3  7
   0.102036754572E-04  1 22  3  9
   0.109724249546E-01  1 22  3 17
  -0.190204825301E-02  1 22  3 19
   0.156122022855E-02  1 22  3 23
  -0.188499918772E-01  1 22  3 28
  -0.416636735288E-02  1 23  3  4
   0.406562857851E-03  1 23  3  5
   0.100322061020E-01  1 23  3 21
   0.138883662231E-02  1 23  3 22
   0.169390618207E-01  1 23  3 26
   0.290838070163E-02  1 23  3 27
   0.449098551411E-02  1 24  3 18
   0.759864247749E-02  1 24  3 29
   0.101213091686E-01  1 25  3 18
  -0.527290452119E-02  1 25  3 29
   0.218665292678E-03  1 26  3  7
   0.548072627975E-02  1 26  3  9
   0.405561604595E-03  1 26  3 17
  -0.200579177159E-03  1 26  3 19
   0.145544322468E-01  1 26  3 23
  -0.148879575697E-03  1 26  3 28
   0.375441090521E-04  1 27  3  7
  -0.104059266641E-03  1 27  3  9
  -0.236208179717E-02  1 27  3 17
  -0.105643600509E-01  1 27  3 19
   0.249894771749E-02  1 27  3 23
  -0.784137963806E-02  1 27  3 28
   0.370388240205E-03  1 28  3  4
  -0.402565137784E-02  1 28  3  5
  -0.970016390264E-03  1 28  3 21
  -0.188334933956E-01  1 28  3 22
  -0.152730742775E-03  1 28  3 26
  -0.804421795934E-02  1 28  3 27
   0.662410076057E-02  1 29  3 24
  -0.459664352476E-02  1 29  3 25
  -0.290008944098E-02  1 30  3 12
   0.336987157157E-02  1 30  3 13
   0.586078577243E-03  1 30  3 31
   0.690078539536E-02  1 30  3 32
   0.714451701131E-03  1 31  3  6
   0.119690316718E-02  1 31  3 15
  -0.200163244333E-02  1 31  3 16
   0.815588037512E-03  1 31  3 20
   0.676242884793E-03  1 31  3 30
  -0.682531540989E-02  1 32  3  6
  -0.101652106892E-03  1 32  3 15
  -0.209524324746E-03  1 32  3 16
  -0.779149325002E-02  1 32  3 20
   0.796242554700E-02  1 32  3 30
   0.387331813431      1  1  4  4
  -0.594446408221E-03  1  1  4 21
  -0.239628176164E-04  1  1  4 22
  -0.245223811664E-03  1  1  4 26
  -0.178751761428E-04  1  1  4 27
  -0.523692872862E-02  1  2  4  7
  -0.514772545981E-02  1  2  4  9
   0.376292932008E-01  1  2  4 17
   0.272407587566E-01  1  2  4 19
   0.125280775472E-03  1  2  4 23
  -0.218918500146E-01  1  2  4 28
  -0.536669019254E-01  1  3  4  7
  -0.559492610118E-01  1  3  4  9
  -0.367194525710E-02  1  3  4 17
  -0.250634137357E-02  1  3  4 19
   0.128385004350E-02  1  3  4 23
   0.201420414960E-02  1  3  4 28
   0.113150566778E-03  1  4  4  6
   0.256363244744E-01  1  4  4 15
   0.367118874511E-01  1  4  4 16
  -0.174874362627E-03  1  4  4 20
   0.204780582123E-01  1  5  4  6
  -0.202849843246E-03  1  5  4 16
  -0.316488680165E-01  1  5  4 20
   0.522896611641E-02  1  5  4 30
   0.100508880452E-03  1  6  4  4
   0.181901581506E-01  1  6  4  5
   0.130722574078E-02  1  6  4 21
  -0.285129027180E-01  1  6  4 22
  -0.111683990405E-02  1  6  4 26
   0.142362649708E-01  1  6  4 27
  -0.354690984185E-01  1  7  4 12
  -0.249666621445E-01  1  7  4 13
  -0.309331586463E-02  1  7  4 31
  -0.388175369786E-04  1  7  4 32
   0.657589260907E-02  1  8  4 24
   0.116223690480E-01  1  8  4 25
  -0.611984166376E-02  1  9  4 12
  -0.435851705107E-02  1  9  4 13
   0.337941256559E-02  1  9  4 31
   0.237332621998E-04  1  9  4 32
  -0.723403138053E-02  1 10  4 18
  -0.517250253951E-02  1 10  4 29
  -0.748160366871E-02  1 11  4 18
   0.494633351461E-02  1 11  4 29
  -0.141071231739E-01  1 12  4  7
  -0.546611929139E-02  1 12  4  9
  -0.333082376882E-02  1 12  4 17
   0.503767608000E-02  1 12  4 19
  -0.308888293206E-02  1 12  4 23
   0.226131914697E-03  1 12  4 28
  -0.992998953460E-02  1 13  4  7
  -0.389293957239E-02  1 13  4  9
   0.473196268858E-02  1 13  4 17
  -0.707345645533E-02  1 13  4 19
  -0.217426147394E-02  1 13  4 23
  -0.317514283914E-03  1 13  4 28
  -0.491237351154E-02  1 14  4 24
   0.274368164517E-02  1 14  4 25
   0.872051135650E-02  1 15  4  4
  -0.582068579880E-02  1 15  4 21
  -0.234638529298E-03  1 15  4 22
   0.273589160490E-02  1 15  4 26
   0.199428151298E-03  1 15  4 27
   0.124569663568E-01  1 16  4  4
  -0.688303938262E-04  1 16  4  5
  -0.478754030688E-02  1 16  4 21
  -0.219493469282E-03  1 16  4 22
  -0.527195767872E-02  1 16  4 26
  -0.413586915536E-03  1 16  4 27
  -0.282888199534E-02  1 17  4 12
   0.401887492876E-02  1 17  4 13
  -0.529826907557E-04  1 17  4 31
   0.422211906849E-02  1 17  4 32
  -0.595008140560E-02  1 18  4 10
  -0.615371272123E-02  1 18  4 11
   0.409045882948E-02  1 19  4 12
  -0.574345829378E-02  1 19  4 13
  -0.279676940506E-04  1 19  4 31
   0.398235794751E-02  1 19  4 32
  -0.511413409440E-04  1 20  4  4
  -0.925559082778E-02  1 20  4  5
   0.595583923436E-03  1 20  4 21
  -0.129907374280E-01  1 20  4 22
  -0.754508443142E-03  1 20  4 26
   0.961765584295E-02  1 20  4 27
   0.319903982483E-03  1 21  4  6
  -0.101696756744E-01  1 21  4 15
  -0.118280849387E-01  1 21  4 16
   0.580549148815E-03  1 21  4 20
  -0.583852716254E-03  1 21  4 30
  -0.697767101376E-02  1 22  4  6
  -0.409951303763E-03  1 22  4 15
  -0.542280008138E-03  1 22  4 16
  -0.126628024753E-01  1 22  4 20
   0.144836538721E-01  1 22  4 30
  -0.864980480970E-02  1 23  4 12
  -0.608858862725E-02  1 23  4 13
   0.602364471615E-02  1 23  4 31
   0.755897415218E-04  1 23  4 32
   0.439274250703E-02  1 24  4  8
  -0.380154422387E-02  1 24  4 14
   0.776382427641E-02  1 25  4  8
   0.212325614132E-02  1 25  4 14
  -0.244348639522E-03  1 26  4  6
   0.718158915114E-04  1 26  4 15
  -0.706149866996E-02  1 26  4 16
  -0.189246081909E-03  1 26  4 20
  -0.323032903253E-03  1 26  4 30
   0.311469175690E-02  1 27  4  6
  -0.553977021401E-03  1 27  4 16
   0.241230390718E-02  1 27  4 20
   0.443158599403E-02  1 27  4 30
   0.224853873397E-03  1 28  4 12
  -0.315719750861E-03  1 28  4 13
   0.135040923349E-03  1 28  4 31
  -0.192286618627E-01  1 28  4 32
  -0.328260607059E-02  1 29  4 10
   0.313907326925E-02  1 29  4 11
  -0.281275754831E-03  1 30  4 21
   0.697761705288E-02  1 30  4 22
  -0.131478707590E-03  1 30  4 26
   0.180371475637E-02  1 30  4 27
  -0.695069372421E-02  1 31  4  7
  -0.412261479983E-02  1 31  4  9
  -0.963602701508E-04  1 31  4 17
  -0.412566945669E-04  1 31  4 19
   0.445132546592E-02  1 31  4 23
   0.776335233829E-04  1 31  4 28
  -0.872231492971E-04  1 32  4  7
  -0.289527173966E-04  1 32  4  9
   0.767881919114E-02  1 32  4 17
   0.587459604757E-02  1 32  4 19
   0.558589636883E-04  1 32  4 23
  -0.110543429310E-01  1 32  4 28
   0.387331813431      1  1  5  5
  -0.239628176060E-04  1  1  5 21
   0.594446408133E-03  1  1  5 22
  -0.178751761294E-04  1  1  5 26
   0.245223811333E-03  1  1  5 27
  -0.536669019253E-01  1  2  5  7
   0.559492610115E-01  1  2  5  9
  -0.367194525714E-02  1  2  5 17
   0.250634137404E-02  1  2  5 19
   0.128385004489E-02  1  2  5 23
  -0.201420414971E-02  1  2  5 28
   0.523692872875E-02  1  3  5  7
  -0.514772545982E-02  1  3  5  9
  -0.376292932005E-01  1  3  5 17
   0.272407587628E-01  1  3  5 19
  -0.125280775676E-03  1  3  5 23
  -0.218918500151E-01  1  3  5 28
   0.204780582125E-01  1  4  5  6
  -0.202849843242E-03  1  4  5 16
  -0.316488680170E-01  1  4  5 20
  -0.522896611522E-02  1  4  5 30
  -0.113150566815E-03  1  5  5  6
   0.256363244775E-01  1  5  5 15
  -0.367118874495E-01  1  5  5 16
   0.174874362674E-03  1  5  5 20
  -0.100508880479E-03  1  6  5  5
   0.285129027173E-01  1  6  5 21
   0.130722574061E-02  1  6  5 22
  -0.142362649712E-01  1  6  5 26
  -0.111683990409E-02  1  6  5 27
  -0.249666621449E-01  1  7  5 12
   0.354690984190E-01  1  7  5 13
   0.388175368677E-04  1  7  5 31
  -0.309331586537E-02  1  7  5 32
   0.116223690479E-01  1  8  5 24
  -0.657589260897E-02  1  8  5 25
   0.435851705104E-02  1  9  5 12
  -0.611984166356E-02  1  9  5 13
   0.237332623219E-04  1  9  5 31
  -0.337941256525E-02  1  9  5 32
  -0.748160366863E-02  1 10  5 18
  -0.494633351467E-02  1 10  5 29
   0.723403138041E-02  1 11  5 18
  -0.517250253950E-02  1 11  5 29
  -0.992998953503E-02  1 12  5  7
   0.389293957262E-02  1 12  5  9
   0.473196268769E-02  1 12  5 17
   0.707345645329E-02  1 12  5 19
  -0.217426147398E-02  1 12  5 23
   0.317514283650E-03  1 12  5 28
   0.141071231741E-01  1 13  5  7
  -0.546611929124E-02  1 13  5  9
   0.333082376848E-02  1 13  5 17
   0.503767607843E-02  1 13  5 19
   0.308888293211E-02  1 13  5 23
   0.226131914612E-03  1 13  5 28
  -0.274368164507E-02  1 14  5 24
  -0.491237351124E-02  1 14  5 25
   0.872051135811E-02  1 15  5  5
  -0.234638529323E-03  1 15  5 21
   0.582068579961E-02  1 15  5 22
   0.199428151223E-03  1 15  5 26
  -0.273589160380E-02  1 15  5 27
  -0.124569663556E-01  1 16  5  5
   0.219493469285E-03  1 16  5 21
  -0.478754030633E-02  1 16  5 22
   0.413586915523E-03  1 16  5 26
  -0.527195767896E-02  1 16  5 27
   0.401887492814E-02  1 17  5 12
   0.282888199499E-02  1 17  5 13
  -0.422211906715E-02  1 17  5 31
  -0.529826907572E-04  1 17  5 32
  -0.615371272116E-02  1 18  5 10
   0.595008140550E-02  1 18  5 11
   0.574345829225E-02  1 19  5 12
   0.409045882838E-02  1 19  5 13
   0.398235794600E-02  1 19  5 31
   0.279676940188E-04  1 19  5 32
   0.511413409701E-04  1 20  5  5
   0.129907374280E-01  1 20  5 21
   0.595583923443E-03  1 20  5 22
  -0.961765584347E-02  1 20  5 26
  -0.754508443203E-03  1 20  5 27
   0.697767101292E-02  1 21  5  6
  -0.409951303814E-03  1 21  5 15
   0.542280008103E-03  1 21  5 16
   0.126628024755E-01  1 21  5 20
   0.144836538711E-01  1 21  5 30
   0.319903982380E-03  1 22  5  6
   0.101696756763E-01  1 22  5 15
  -0.118280849376E-01  1 22  5 16
   0.580549148855E-03  1 22  5 20
   0.583852716233E-03  1 22  5 30
  -0.608858862729E-02  1 23  5 12
   0.864980480974E-02  1 23  5 13
  -0.755897414848E-04  1 23  5 31
   0.602364471564E-02  1 23  5 32
   0.776382427630E-02  1 24  5  8
  -0.212325614118E-02  1 24  5 14
  -0.439274250695E-02  1 25  5  8
  -0.380154422354E-02  1 25  5 14
  -0.311469175690E-02  1 26  5  6
   0.553977021326E-03  1 26  5 16
  -0.241230390718E-02  1 26  5 20
   0.443158599431E-02  1 26  5 30
  -0.244348639524E-03  1 27  5  6
  -0.718158901579E-04  1 27  5 15
  -0.706149866973E-02  1 27  5 16
  -0.189246081881E-03  1 27  5 20
   0.323032903280E-03  1 27  5 30
   0.315719750370E-03  1 28  5 12
   0.224853873047E-03  1 28  5 13
  -0.192286618628E-01  1 28  5 31
  -0.135040923353E-03  1 28  5 32
  -0.313907326923E-02  1 29  5 10
  -0.328260607052E-02  1 29  5 11
   0.697761705120E-02  1 30  5 21
   0.281275754775E-03  1 30  5 22
   0.180371475721E-02  1 30  5 26
   0.131478707645E-03  1 30  5 27
   0.872231490817E-04  1 31  5  7
  -0.289527171517E-04  1 31  5  9
  -0.767881918948E-02  1 31  5 17
   0.587459604388E-02  1 31  5 19
  -0.558589636653E-04  1 31  5 23
  -0.110543429305E-01  1 31  5 28
  -0.695069372553E-02  1 32  5  7
   0.412261480153E-02  1 32  5  9
  -0.963602702941E-04  1 32  5 17
   0.412566946083E-04  1 32  5 19
   0.445132546609E-02  1 32  5 23
  -0.776335234798E-04  1 32  5 28
   0.388694157134      1  1  6  6
   0.570808857046E-03  1  1  6 20
   0.403946188515E-01  1  2  6 12
   0.232137357887E-01  1  2  6 13
   0.345936845703E-02  1  2  6 31
   0.362115357230E-03  1  2  6 32
   0.232137357887E-01  1  3  6 12
  -0.403946188520E-01  1  3  6 13
  -0.362115357564E-03  1  3  6 31
   0.345936845690E-02  1  3  6 32
   0.123793002547E-02  1  4  6 21
  -0.270014408756E-01  1  4  6 22
  -0.418480652997E-03  1  4  6 26
   0.533433822126E-02  1  4  6 27
   0.270014408751E-01  1  5  6 21
   0.123793002541E-02  1  5  6 22
  -0.533433822122E-02  1  5  6 26
  -0.418480652988E-03  1  5  6 27
  -0.400341302372E-01  1  6  6 15
  -0.493697504994E-02  1  7  6 19
  -0.192684775671E-01  1  7  6 28
   0.218071378311E-01  1  8  6 14
   0.186492170651E-01  1  9  6 17
  -0.183498228597E-01  1 10  6 10
  -0.719125555767E-03  1 10  6 11
  -0.719125555746E-03  1 11  6 10
   0.183498228597E-01  1 11  6 11
  -0.261090599793E-02  1 12  6 12
   0.919448497879E-03  1 12  6 13
  -0.425333490045E-02  1 12  6 31
  -0.613360254851E-02  1 12  6 32
   0.919448498171E-03  1 13  6 12
   0.261090599821E-02  1 13  6 13
   0.613360254878E-02  1 13  6 31
  -0.425333490034E-02  1 13  6 32
   0.167589724155E-01  1 14  6  8
  -0.140072979212E-01  1 15  6  6
  -0.208384114285E-03  1 15  6 20
  -0.994942612890E-02  1 16  6 30
   0.126333232448E-01  1 17  6  9
  -0.796531726571E-02  1 18  6 29
   0.682522272389E-04  1 19  6  7
  -0.117486028627E-01  1 19  6 23
  -0.792132640264E-02  1 20  6 15
  -0.613470698175E-03  1 21  6 21
   0.710714261831E-02  1 21  6 22
  -0.184438672048E-02  1 21  6 26
   0.154810614108E-01  1 21  6 27
   0.710714261845E-02  1 22  6 21
   0.613470698186E-03  1 22  6 22
   0.154810614114E-01  1 22  6 26
   0.184438672051E-02  1 22  6 27
  -0.167420303350E-01  1 23  6 19
  -0.180608987584E-01  1 23  6 28
  -0.571040904757E-02  1 24  6 24
  -0.347396936126E-02  1 24  6 25
  -0.347396936123E-02  1 25  6 24
   0.571040904757E-02  1 25  6 25
  -0.130157695384E-02  1 26  6 21
   0.109249283895E-01  1 26  6 22
  -0.203047595088E-02  1 26  6 26
   0.133396068715E-01  1 26  6 27
   0.109249283893E-01  1 27  6 21
   0.130157695387E-02  1 27  6 22
   0.133396068713E-01  1 27  6 26
   0.203047595090E-02  1 27  6 27
  -0.500279401701E-02  1 28  6  7
  -0.205889570762E-01  1 28  6 23
  -0.618260109941E-02  1 29  6 18
  -0.707986818321E-02  1 30  6 16
   0.159035631428E-03  1 31  6 12
  -0.229340297250E-03  1 31  6 13
  -0.881815006098E-04  1 31  6 31
   0.450515642843E-02  1 31  6 32
   0.229340298377E-03  1 32  6 12
   0.159035632028E-03  1 32  6 13
   0.450515642861E-02  1 32  6 31
   0.881815005947E-04  1 32  6 32
   0.388780170136      1  1  7  7
   0.600358292903E-03  1  1  7 23
   0.479250439021E-02  1  2  7 21
  -0.346184647291E-01  1  2  7 22
  -0.207287244759E-02  1  2  7 26
   0.120728743066E-01  1  2  7 27
   0.346184647291E-01  1  3  7 21
   0.479250439025E-02  1  3  7 22
  -0.120728743073E-01  1  3  7 26
  -0.207287244758E-02  1  3  7 27
  -0.373149323798E-01  1  4  7 12
  -0.262659427556E-01  1  4  7 13
  -0.116279284834E-01  1  4  7 31
  -0.145917012363E-03  1  4  7 32
  -0.262659427559E-01  1  5  7 12
   0.373149323798E-01  1  5  7 13
   0.145917012194E-03  1  5  7 31
  -0.116279284833E-01  1  5  7 32
   0.595329321696E-02  1  6  7 19
  -0.190715997617E-01  1  6  7 28
   0.399251304564E-01  1  7  7 15
  -0.187733034248E-01  1  8  7 18
   0.220328089493E-01  1  9  7 16
   0.133253636525E-01  1 10  7 24
   0.345489472280E-02  1 10  7 25
  -0.345489472284E-02  1 11  7 24
   0.133253636525E-01  1 11  7 25
   0.222462992937E-02  1 12  7 21
  -0.143550485170E-02  1 12  7 22
  -0.194687227289E-02  1 12  7 26
   0.116853070596E-02  1 12  7 27
   0.143550485181E-02  1 13  7 21
   0.222462992897E-02  1 13  7 22
  -0.116853070607E-02  1 13  7 26
  -0.194687227262E-02  1 13  7 27
   0.100765476909E-01  1 14  7 29
   0.140260435042E-01  1 15  7  7
  -0.290282665909E-03  1 15  7 23
   0.169189399737E-01  1 16  7  9
  -0.815848132416E-02  1 17  7 30
  -0.127002445322E-01  1 18  7  8
   0.140526863731E-01  1 19  7 20
   0.186555139281E-01  1 20  7 19
  -0.165344302666E-01  1 20  7 28
   0.647380722021E-02  1 21  7 12
   0.417740578880E-02  1 21  7 13
   0.131003909825E-01  1 21  7 31
   0.692836972628E-03  1 21  7 32
  -0.417740578875E-02  1 22  7 12
   0.647380722008E-02  1 22  7 13
   0.692836972571E-03  1 22  7 31
  -0.131003909829E-01  1 22  7 32
   0.685154948167E-02  1 23  7 15
   0.989765205596E-02  1 24  7 10
  -0.256618478962E-02  1 24  7 11
   0.256618478958E-02  1 25  7 10
   0.989765205594E-02  1 25  7 11
   0.112807363557E-02  1 26  7 12
   0.677080203152E-03  1 26  7 13
  -0.312328273678E-02  1 26  7 31
  -0.267104270977E-03  1 26  7 32
  -0.677080203146E-03  1 27  7 12
   0.112807363564E-02  1 27  7 13
  -0.267104270965E-03  1 27  7 31
   0.312328273665E-02  1 27  7 32
  -0.191378305971E-01  1 28  7 20
   0.714973231956E-02  1 29  7 14
  -0.632478148048E-02  1 30  7 17
   0.109159382124E-01  1 31  7 21
   0.577308393343E-03  1 31  7 22
  -0.610658909607E-02  1 31  7 26
  -0.522237713418E-03  1 31  7 27
   0.577308393531E-03  1 32  7 21
  -0.109159382134E-01  1 32  7 22
  -0.522237713491E-03  1 32  7 26
   0.610658909613E-02  1 32  7 27
   0.389328657703      1  1  8  8
  -0.629011190867E-01  1  2  8 10
   0.499671005702E-01  1  2  8 11
  -0.499671005703E-01  1  3  8 10
  -0.629011190869E-01  1  3  8 11
   0.189031851632E-01  1  4  8 24
   0.334098818852E-01  1  4  8 25
   0.334098818849E-01  1  5  8 24
  -0.189031851630E-01  1  5  8 25
   0.525148079398E-01  1  6  8 14
  -0.482540784119E-01  1  7  8 18
  -0.404501317941E-02  1  8  8 15
   0.283858378555E-02  1 10  8 12
  -0.542626877780E-03  1 10  8 13
  -0.235716979057E-02  1 10  8 31
  -0.249986360091E-02  1 10  8 32
   0.542626877718E-03  1 11  8 12
   0.283858378565E-02  1 11  8 13
  -0.249986360077E-02  1 11  8 31
   0.235716979059E-02  1 11  8 32
   0.299198645394E-02  1 12  8 10
   0.571951466356E-03  1 12  8 11
  -0.571951466849E-03  1 13  8 10
   0.299198645441E-02  1 13  8 11
   0.819800883576E-02  1 14  8 20
  -0.408700286278E-02  1 15  8  8
  -0.317682222264E-02  1 18  8 23
   0.526621546500E-02  1 19  8 29
   0.183464505702E-01  1 20  8 14
  -0.102329745859E-01  1 21  8 24
  -0.164980374464E-01  1 21  8 25
   0.164980374470E-01  1 22  8 24
  -0.102329745863E-01  1 22  8 25
  -0.104474439026E-01  1 23  8 18
  -0.405288685953E-02  1 24  8 21
   0.653423684667E-02  1 24  8 22
  -0.314658115110E-03  1 24  8 26
   0.472343305313E-03  1 24  8 27
  -0.653423684652E-02  1 25  8 21
  -0.405288685961E-02  1 25  8 22
  -0.472343305292E-03  1 25  8 26
  -0.314658115145E-03  1 25  8 27
  -0.203561551152E-02  1 26  8 24
  -0.305572742953E-02  1 26  8 25
   0.305572742936E-02  1 27  8 24
  -0.203561551150E-02  1 27  8 25
  -0.230896784758E-01  1 28  8 29
   0.309659846167E-02  1 29  8 19
  -0.927315913645E-02  1 29  8 28
  -0.761184014632E-02  1 31  8 10
  -0.807263107323E-02  1 31  8 11
  -0.807263107510E-02  1 32  8 10
   0.761184014766E-02  1 32  8 11
   0.389348098677      1  1  9  9
  -0.153972841056E-02  1  2  9 21
  -0.298948196763E-01  1  2  9 22
   0.488716606240E-03  1  2  9 26
   0.257403515403E-01  1  2  9 27