  &FCI NORB= 30,NELEC= 30,MS2=  0,
  ORBSYM= 1, 1, 1, 1, 1, 1, 1, 1, 1, 1, 1, 1, 1, 1, 1, 1, 1, 1, 1, 1, 1, 1, 1, 1, 1, 1, 1, 1, 1, 1,
  ISYM=0
 &END
    0.30791906032        1    1    1    1
    0.87670688346E-01    2    1    2    1
    0.30212583151        2    2    1    1
   -0.45124487541E-10    2    2    2    1
    0.32142847508        2    2    2    2
   -0.94517153928E-10    3    1    1    1
   -0.32015645797E-10    3    1    2    2
    0.87664683191E-01    3    1    3    1
    0.21288666334E-10    3    2    2    1
   -0.32865455773E-10    3    2    3    1
    0.23357620925E-01    3    2    3    2
    0.30212281623        3    3    1    1
   -0.29301360986E-10    3    3    2    1
    0.27471551340        3    3    2    2
   -0.87523104793E-10    3    3    3    1
   -0.14891051524E-10    3    3    3    2
    0.32142544472        3    3    3    3
   -0.38759104761E-08    4    1    2    2
    0.20368271370E-10    4    1    3    1
   -0.32811588640E-01    4    1    3    2
    0.38879795547E-08    4    1    3    3
    0.46624145492E-01    4    1    4    1
    0.70509313994E-10    4    2    1    1
   -0.76122663902E-08    4    2    2    1
    0.58615742924E-10    4    2    2    2
   -0.63636607438E-01    4    2    3    1
    0.27565457634E-10    4    2    3    2
    0.54233382372E-10    4    2    3    3
   -0.26204811362E-10    4    2    4    1
    0.50297074433E-01    4    2    4    2
    0.28135133929E-10    4    3    1    1
   -0.63638769861E-01    4    3    2    1
    0.33787596459E-10    4    3    2    2
    0.76677761950E-08    4    3    3    1
   -0.13222938602E-10    4    3    3    2
    0.63192679496E-10    4    3    3    3
   -0.46460509817E-08    4    3    4    2
    0.78272583260E-01    4    3    4    3
    0.30534500540        4    4    1    1
   -0.36348527595E-10    4    4    2    1
    0.28406047127        4    4    2    2
   -0.10515644349E-09    4    4    3    1
   -0.59694266312E-08    4    4    3    2
    0.32131360746        4    4    3    3
    0.12067784779E-07    4    4    4    1
    0.10880450227E-09    4    4    4    2
    0.10304910446E-09    4    4    4    3
    0.33156543805        4    4    4    4
   -0.70755353493E-05    5    1    1    1
   -0.24302490743E-10    5    1    2    1
   -0.32817726117E-01    5    1    2    2
   -0.87837385857E-10    5    1    3    1
    0.38527829286E-08    5    1    3    2
    0.32804296638E-01    5    1    3    3
    0.38678830737E-10    5    1    4    1
    0.42648540819E-10    5    1    4    2
    0.39002515823E-10    5    1    4    3
    0.27918659985E-01    5    1    4    4
    0.46625990391E-01    5    1    5    1
   -0.34349266236E-10    5    2    1    1
   -0.63644155250E-01    5    2    2    1
    0.24564924859E-10    5    2    2    2
    0.76133115519E-08    5    2    3    1
   -0.25603925417E-10    5    2    3    2
   -0.46463514446E-10    5    2    3    3
    0.23318898611E-10    5    2    4    1
    0.45939242987E-08    5    2    4    2
    0.15480088204E-01    5    2    4    3
   -0.65606776251E-10    5    2    4    4
    0.78279263502E-01    5    2    5    2
   -0.10161582303E-09    5    3    1    1
    0.76461396702E-08    5    3    2    1
   -0.55926815976E-10    5    3    2    2
    0.63629717426E-01    5    3    3    1
   -0.39091359925E-10    5    3    3    2
   -0.99930469181E-10    5    3    3    3
    0.31891745257E-10    5    3    4    1
   -0.43444223041E-01    5    3    4    2
   -0.45686024143E-08    5    3    4    3
   -0.11246850213E-09    5    3    4    4
   -0.59955487667E-10    5    3    5    1
    0.45350068385E-08    5    3    5    2
    0.50287078315E-01    5    3    5    3
    0.59060725603E-08    5    4    2    2
    0.43188182112E-10    5    4    3    1
   -0.18622870154E-01    5    4    3    2
   -0.59014328160E-08    5    4    3    3
    0.27919515285E-01    5    4    4    1
   -0.51089885306E-10    5    4    4    2
   -0.16022326389E-10    5    4    4    3
    0.45254430516E-10    5    4    4    4
   -0.11950744648E-07    5    4    5    1
    0.28034167446E-10    5    4    5    2
    0.23867247608E-10    5    4    5    3
    0.21302617335E-01    5    4    5    4
    0.30534547746        5    5    1    1
    0.32131924877        5    5    2    2
   -0.84516014321E-10    5    5    3    1
    0.58778236031E-08    5    5    3    2
    0.28405207198        5    5    3    3
   -0.11962236753E-07    5    5    4    1
    0.81414694205E-10    5    5    4    2
    0.28893150407        5    5    4    4
   -0.27944437421E-01    5    5    5    1
   -0.41762980349E-10    5    5    5    2
   -0.10655482425E-09    5    5    5    3
    0.33157700142        5    5    5    5
    0.30891885924E-10    6    1    1    1
    0.12219397097E-05    6    1    2    1
    0.22944023295E-10    6    1    2    2
    0.51543047572E-10    6    1    3    1
    0.22476286796E-10    6    1    3    2
    0.39943064427E-10    6    1    3    3
   -0.34481714818E-10    6    1    4    1
   -0.53672530322E-08    6    1    4    2
    0.33205240244E-01    6    1    4    3
    0.81755056934E-10    6    1    4    4
   -0.33205796951E-01    6    1    5    2
   -0.52597188888E-08    6    1    5    3
   -0.32683616988E-10    6    1    5    4
    0.46359029578E-10    6    1    5    5
    0.35158483256E-01    6    1    6    1
   -0.73559068660E-06    6    2    1    1
    0.24745044047E-10    6    2    2    1
    0.30313201848E-01    6    2    2    2
    0.62738170884E-10    6    2    3    1
    0.13029277270E-08    6    2    3    2
   -0.30317187985E-01    6    2    3    3
   -0.70294111496E-08    6    2    4    1
   -0.44599826834E-10    6    2    4    2
   -0.64423348180E-10    6    2    4    3
   -0.30464575798E-01    6    2    4    4
   -0.44314965765E-01    6    2    5    1
    0.25090742004E-10    6    2    5    2
    0.38694627270E-10    6    2    5    3
    0.81819474323E-08    6    2    5    4
    0.30470184285E-01    6    2    5    5
   -0.24644026220E-10    6    2    6    1
    0.45484663480E-01    6    2    6    2
    0.12687269961E-08    6    3    2    2
    0.38288863565E-10    6    3    3    1
   -0.30316597825E-01    6    3    3    2
   -0.12722309355E-08    6    3    3    3
    0.44315005098E-01    6    3    4    1
   -0.53162228770E-10    6    3    4    2
   -0.19770237556E-10    6    3    4    3
    0.82938683970E-08    6    3    4    4
   -0.69362036840E-08    6    3    5    1
    0.14579224337E-10    6    3    5    2
    0.27003070807E-10    6    3    5    3
    0.30455590593E-01    6    3    5    4
   -0.82366961791E-08    6    3    5    5
   -0.35513707013E-10    6    3    6    1
   -0.60599341036E-10    6    3    6    2
    0.45486519091E-01    6    3    6    3
   -0.11838792363E-09    6    4    1    1
   -0.13459668268E-07    6    4    2    1
   -0.76459529419E-10    6    4    2    2
    0.88523604382E-01    6    4    3    1
   -0.76390552751E-10    6    4    3    2
   -0.11890214975E-09    6    4    3    3
    0.85421364237E-10    6    4    4    1
   -0.66499150849E-01    6    4    4    2
    0.18053377688E-07    6    4    4    3
   -0.18839921827E-09    6    4    4    4
   -0.85490084190E-10    6    4    5    1
    0.17926825832E-07    6    4    5    2
    0.66490756635E-01    6    4    5    3
    0.72575422749E-10    6    4    5    4
   -0.11994715323E-09    6    4    5    5
    0.96712148037E-10    6    4    6    1
    0.85680350305E-10    6    4    6    2
    0.94783034476E-10    6    4    6    3
    0.97628567677E-01    6    4    6    4
   -0.32568325356E-10    6    5    1    1
   -0.88523223452E-01    6    5    2    1
   -0.13365297141E-07    6    5    3    1
   -0.17449183745E-10    6    5    4    1
    0.17892164794E-07    6    5    4    2
    0.66492131764E-01    6    5    4    3
    0.14393311955E-10    6    5    4    4
    0.42335935891E-10    6    5    5    1
    0.66508180037E-01    6    5    5    2
   -0.17962678087E-07    6    5    5    3
   -0.15812796044E-10    6    5    5    4
   -0.91972232022E-10    6    5    5    5
   -0.58097529380E-05    6    5    6    1
   -0.55531697838E-10    6    5    6    2
   -0.41136439718E-10    6    5    6    3
    0.75077750690E-10    6    5    6    4
    0.97620498265E-01    6    5    6    5
    0.30903044154        6    6    1    1
   -0.40687779162E-10    6    6    2    1
    0.30707550034        6    6    2    2
   -0.12925820865E-09    6    6    3    1
   -0.65146539443E-10    6    6    3    2
    0.30707815934        6    6    3    3
    0.81378032495E-10    6    6    4    1
    0.12782341497E-09    6    6    4    2
    0.93122164615E-10    6    6    4    3
    0.31689357518        6    6    4    4
   -0.67698369941E-05    6    6    5    1
   -0.62150500031E-10    6    6    5    2
   -0.14073189137E-09    6    6    5    3
    0.31853166366E-10    6    6    5    4
    0.31688795412        6    6    5    5
    0.92556778482E-10    6    6    6    1
   -0.54513231142E-05    6    6    6    2
    0.48694260495E-10    6    6    6    3
   -0.20764808524E-09    6    6    6    4
   -0.27662491547E-10    6    6    6    5
    0.32546657122        6    6    6    6
    0.95986934645E-02    7    1    1    1
   -0.17219309121E-10    7    1    2    1
    0.94958473979E-02    7    1    2    2
   -0.15366264586E-10    7    1    3    2
    0.94955163022E-02    7    1    3    3
    0.17313404001E-10    7    1    4    1
    0.11092023738E-10    7    1    4    2
   -0.10483017922E-10    7    1    4    3
    0.10215345499E-01    7    1    4    4
   -0.11205759631E-05    7    1    5    1
    0.21790248151E-10    7    1    5    2
    0.10215402835E-01    7    1    5    5
   -0.14414797140E-10    7    1    6    1
   -0.59667669146E-06    7    1    6    2
   -0.11998361986E-10    7    1    6    4
    0.10770096746E-01    7    1    6    6
    0.20057570963E-02    7    1    7    1
   -0.27884279671E-10    7    2    1    1
    0.55120071383E-02    7    2    2    1
   -0.38405739519E-10    7    2    2    2
   -0.15796240611E-10    7    2    3    3
   -0.46869672493E-09    7    2    4    2
   -0.41334244068E-02    7    2    4    3
   -0.15949319014E-10    7    2    4    4
   -0.41339699322E-02    7    2    5    2
    0.48247958607E-09    7    2    5    3
   -0.22283077269E-10    7    2    5    5
   -0.31792727568E-06    7    2    6    1
   -0.10499510278E-10    7    2    6    2
   -0.93179083044E-09    7    2    6    4
   -0.60821830805E-02    7    2    6    5
   -0.21392783991E-10    7    2    6    6
    0.97011126503E-03    7    2    7    2
   -0.17438785973E-10    7    3    2    1
    0.55115877816E-02    7    3    3    1
   -0.41332302888E-02    7    3    4    2
    0.49169797694E-09    7    3    4    3
   -0.10367052991E-10    7    3    5    1
    0.48946058023E-09    7    3    5    2
    0.41323560619E-02    7    3    5    3
    0.11128129846E-10    7    3    6    2
   -0.11244822673E-10    7    3    6    3
    0.60825999044E-02    7    3    6    4
   -0.90168279984E-09    7    3    6    5
    0.97010452534E-03    7    3    7    3
    0.29667796642E-10    7    4    1    1
   -0.26496041717E-09    7    4    2    2
   -0.27255596478E-02    7    4    3    2
    0.32165240772E-09    7    4    3    3
    0.39784531987E-02    7    4    4    1
    0.11093254860E-08    7    4    4    4
   -0.20761471575E-10    7    4    5    1
    0.11481574230E-10    7    4    5    2
    0.25401308837E-02    7    4    5    4
   -0.10421878497E-08    7    4    5    5
   -0.60145292303E-09    7    4    6    2
    0.39130628787E-02    7    4    6    3
    0.38089371797E-10    7    4    6    6
    0.51351567759E-03    7    4    7    4
   -0.53487205537E-05    7    5    1    1
    0.16197624135E-10    7    5    2    1
   -0.27304204032E-02    7    5    2    2
   -0.13374671170E-10    7    5    3    1
    0.29810317538E-09    7    5    3    2
    0.27201962154E-02    7    5    3    3
    0.22850725060E-10    7    5    4    1
   -0.14762176551E-10    7    5    4    3
    0.25356330840E-02    7    5    4    4
    0.39783141357E-02    7    5    5    1
   -0.10679527647E-10    7    5    5    3
   -0.10690191950E-08    7    5    5    4
   -0.25469795377E-02    7    5    5    5
   -0.39126164581E-02    7    5    6    2
   -0.59200391265E-09    7    5    6    3
   -0.16469491244E-10    7    5    6    4
   -0.21350059303E-10    7    5    6    5
   -0.48004241988E-05    7    5    6    6
   -0.66257795736E-07    7    5    7    1
    0.51349559505E-03    7    5    7    5
   -0.29229405751E-10    7    6    1    1
   -0.13803996473E-05    7    6    2    1
   -0.29526968563E-10    7    6    2    2
    0.10837189930E-10    7    6    3    1
   -0.29759401734E-10    7    6    3    3
   -0.51925004583E-09    7    6    4    2
    0.31711730495E-02    7    6    4    3
   -0.30046081659E-10    7    6    4    4
   -0.31690824106E-02    7    6    5    2
   -0.49828299388E-09    7    6    5    3
   -0.34162153129E-10    7    6    5    5
    0.33823083066E-02    7    6    6    1
    0.17469301569E-10    7    6    6    4
    0.84733655162E-06    7    6    6    5
   -0.34202350504E-10    7    6    6    6
   -0.10757227347E-06    7    6    7    2
    0.39539561125E-03    7    6    7    6
    0.16072230715        7    7    1    1
    0.51203450792E-10    7    7    2    1
    0.15839590510        7    7    2    2
   -0.83974264438E-10    7    7    3    1
    0.61884830797E-10    7    7    3    2
    0.15839609088        7    7    3    3
   -0.78086546355E-10    7    7    4    1
    0.53847980016E-10    7    7    4    3
    0.15635309271        7    7    4    4
    0.24712950544E-05    7    7    5    1
   -0.63377116287E-10    7    7    5    2
   -0.48503229660E-10    7    7    5    3
   -0.52907266634E-10    7    7    5    4
    0.15635264515        7    7    5    5
    0.57129282990E-10    7    7    6    1
    0.30996515755E-05    7    7    6    2
   -0.52529315741E-10    7    7    6    3
   -0.53928936059E-10    7    7    6    4
    0.50416807729E-10    7    7    6    5
    0.15551029497        7    7    6    6
   -0.11082171122E-01    7    7    7    1
    0.43660894138E-10    7    7    7    3
   -0.11060349594E-10    7    7    7    4
    0.18667149969E-05    7    7    7    5
   -0.18110175587E-10    7    7    7    6
    0.30858630204        7    7    7    7
    0.46903115460E-02    8    1    2    1
   -0.31614579393E-10    8    1    3    1
    0.19371535605E-10    8    1    3    3
    0.10213252033E-10    8    1    4    1
   -0.38277127203E-09    8    1    4    2
   -0.35362591596E-02    8    1    4    3
    0.24419689259E-10    8    1    4    4
   -0.35372300333E-02    8    1    5    2
    0.39024956731E-09    8    1    5    3
    0.16013127100E-10    8    1    5    5
   -0.93188374886E-07    8    1    6    1
   -0.11821306270E-10    8    1    6    2
    0.11600237437E-10    8    1    6    3
   -0.83189550802E-09    8    1    6    4
   -0.52654090490E-02    8    1    6    5
    0.21864458030E-10    8    1    6    6
    0.94776835837E-03    8    1    7    2
   -0.98272791108E-07    8    1    7    6
    0.93856216388E-03    8    1    8    1
    0.89707725976E-02    8    2    1    1
    0.10416412965E-01    8    2    2    2
   -0.15507831375E-10    8    2    3    2
    0.73409164540E-02    8    2    3    3
   -0.23856796342E-09    8    2    4    1
    0.14450582177E-10    8    2    4    2
   -0.23216461575E-10    8    2    4    3
    0.81652882182E-02    8    2    4    4
   -0.22584217997E-02    8    2    5    1
    0.17223831525E-10    8    2    5    2
    0.46175641856E-09    8    2    5    4
    0.11018605687E-01    8    2    5    5
   -0.18234939788E-10    8    2    6    1
    0.22050014526E-02    8    2    6    2
    0.11186921866E-09    8    2    6    3
   -0.14679091378E-10    8    2    6    4
   -0.16808040173E-10    8    2    6    5
    0.10148905934E-01    8    2    6    6
    0.17342174941E-02    8    2    7    1
   -0.40017927788E-10    8    2    7    4
   -0.36313296628E-03    8    2    7    5
   -0.90281675132E-02    8    2    7    7
    0.18256871694E-02    8    2    8    2
   -0.63482860293E-10    8    3    1    1
   -0.14532628555E-10    8    3    2    1
   -0.57409779680E-10    8    3    2    2
    0.14861963435E-10    8    3    3    1
    0.15376449636E-02    8    3    3    2
   -0.64929966384E-10    8    3    3    3
   -0.22573181905E-02    8    3    4    1
   -0.12814368473E-10    8    3    4    2
    0.15725478655E-10    8    3    4    3
   -0.52409113825E-09    8    3    4    4
    0.24634156622E-09    8    3    5    1
    0.13300004829E-10    8    3    5    3
   -0.14257476258E-02    8    3    5    4
    0.38850822488E-09    8    3    5    5
    0.11101091367E-09    8    3    6    2
   -0.22056644923E-02    8    3    6    3
    0.21669433515E-10    8    3    6    4
    0.15562444029E-10    8    3    6    5
   -0.73368320836E-10    8    3    6    6
   -0.36303367262E-03    8    3    7    4
    0.42771497422E-10    8    3    7    5
    0.51165503996E-10    8    3    7    7
    0.28383825684E-03    8    3    8    3
    0.10963478721E-10    8    4    1    1
   -0.42770806578E-09    8    4    2    1
   -0.42081349106E-02    8    4    3    1
   -0.16974027397E-10    8    4    3    2
    0.16470842293E-10    8    4    3    3
    0.24844906698E-10    8    4    4    1
    0.33571557790E-02    8    4    4    2
   -0.45725121484E-09    8    4    4    3
    0.24124920758E-10    8    4    4    4
    0.36497046710E-09    8    4    5    2
   -0.29831113860E-02    8    4    5    3
    0.19084769501E-10    8    4    5    4
    0.11239780917E-10    8    4    5    5
   -0.46619590198E-09    8    4    6    1
   -0.11150583221E-10    8    4    6    2
    0.27633591142E-10    8    4    6    3
   -0.47006314323E-02    8    4    6    4
    0.11863639178E-08    8    4    6    5
    0.19921593864E-10    8    4    6    6
   -0.64971088005E-10    8    4    7    2
   -0.58023949973E-03    8    4    7    3
   -0.56297104514E-10    8    4    7    6
   -0.60115165431E-10    8    4    8    1
    0.41746034366E-03    8    4    8    4
    0.27481525546E-10    8    5    1    1
   -0.42104816972E-02    8    5    2    1
    0.30289007952E-10    8    5    2    2
    0.42406593849E-09    8    5    3    1
    0.28000516024E-10    8    5    3    3
    0.45557103940E-09    8    5    4    2
    0.49840539429E-03    8    5    4    3
    0.31619403205E-10    8    5    4    4
    0.58460765912E-02    8    5    5    2
    0.34926345837E-09    8    5    5    3
    0.21502653147E-10    8    5    5    5
   -0.28571674204E-02    8    5    6    1
    0.11838185481E-08    8    5    6    4
    0.47029429356E-02    8    5    6    5
    0.30142331971E-10    8    5    6    6
   -0.58032221665E-03    8    5    7    2
    0.66709945358E-10    8    5    7    3
   -0.35203049868E-03    8    5    7    6
   -0.10733409802E-10    8    5    7    7
   -0.55420585637E-03    8    5    8    1
    0.44436731160E-10    8    5    8    4
    0.69282026210E-03    8    5    8    5
   -0.17306058544E-05    8    6    1    1
   -0.19339220185E-10    8    6    2    1
    0.25225957707E-02    8    6    2    2
    0.11836566209E-10    8    6    3    1
    0.13364908739E-09    8    6    3    2
   -0.25262710542E-02    8    6    3    3
   -0.62478059211E-09    8    6    4    1
    0.28158103580E-10    8    6    4    3
   -0.26533095468E-02    8    6    4    4
   -0.37574898479E-02    8    6    5    1
    0.68645648546E-09    8    6    5    4
    0.26506861620E-02    8    6    5    5
    0.16458604843E-10    8    6    6    1
    0.39100535486E-02    8    6    6    2
   -0.35719343507E-10    8    6    6    3
    0.15890966000E-10    8    6    6    4
    0.23169334310E-10    8    6    6    5
   -0.22286925633E-05    8    6    6    6
   -0.32293714769E-06    8    6    7    1
   -0.69209790603E-10    8    6    7    4
   -0.44178956332E-03    8    6    7    5
    0.72603220994E-05    8    6    7    7
    0.28933151331E-03    8    6    8    2
    0.12819076252E-10    8    6    8    3
    0.42564183107E-03    8    6    8    6
    0.57884784966E-10    8    7    1    1
    0.16523731030E-01    8    7    2    1
    0.60806138414E-10    8    7    2    2
    0.19872045804E-10    8    7    3    1
    0.31409060061E-10    8    7    3    3
    0.16487881256E-10    8    7    4    1
   -0.14661474246E-08    8    7    4    2
   -0.11526302487E-01    8    7    4    3
    0.38905410354E-10    8    7    4    4
   -0.11525424837E-01    8    7    5    2
    0.14539109508E-08    8    7    5    3
    0.18372646442E-10    8    7    5    5
    0.15288533682E-05    8    7    6    1
    0.12679380668E-10    8    7    6    2
   -0.22260550343E-08    8    7    6    4
   -0.14695726866E-01    8    7    6    5
    0.27374692928E-10    8    7    6    6
   -0.39864002996E-02    8    7    7    2
    0.14374479254E-10    8    7    7    3
    0.37003134086E-05    8    7    7    6
    0.46521872034E-10    8    7    7    7
   -0.46831848777E-02    8    7    8    1
    0.10913499518E-09    8    7    8    4
    0.15765276019E-02    8    7    8    5
    0.88568648888E-01    8    7    8    7
    0.15842241346        8    8    1    1
    0.64036446938E-10    8    8    2    1
    0.15847949484        8    8    2    2
   -0.84333276837E-10    8    8    3    1
    0.53809998019E-10    8    8    3    2
    0.15430232261        8    8    3    3
   -0.40229787755E-09    8    8    4    1
    0.50076469772E-10    8    8    4    3
    0.15332183214        8    8    4    4
   -0.26499420660E-02    8    8    5    1
   -0.74033615562E-10    8    8    5    2
   -0.48771653481E-10    8    8    5    3
    0.34073016492E-09    8    8    5    4
    0.15570571299        8    8    5    5
    0.64033718845E-10    8    8    6    1
    0.21932721995E-02    8    8    6    2
    0.38654137888E-10    8    8    6    3
   -0.53648323730E-10    8    8    6    4
    0.34521461597E-10    8    8    6    5
    0.15372314106        8    8    6    6
   -0.10729950852E-01    8    8    7    1
    0.38346531398E-10    8    8    7    3
    0.47113816024E-10    8    8    7    4
    0.86403740524E-03    8    8    7    5
   -0.17946577586E-10    8    8    7    6
    0.30303234891        8    8    7    7
   -0.14643126765E-10    8    8    8    1
   -0.99998369053E-02    8    8    8    2
    0.52860664453E-10    8    8    8    3
   -0.45537096076E-03    8    8    8    6
    0.41307361889E-10    8    8    8    7
    0.32281411702        8    8    8    8
   -0.12126230497E-10    9    1    1    1
   -0.18019446553E-10    9    1    2    2
    0.46896937128E-02    9    1    3    1
   -0.18761529431E-10    9    1    3    3
   -0.35361556709E-02    9    1    4    2
    0.40592696783E-09    9    1    4    3
   -0.32290604883E-10    9    1    4    4
    0.40199222091E-09    9    1    5    2
    0.35352341426E-02    9    1    5    3
   -0.18783685571E-10    9    1    5    5
    0.52654696395E-02    9    1    6    4
   -0.79917339489E-09    9    1    6    5
   -0.27194171551E-10    9    1    6    6
    0.94773222378E-03    9    1    7    3
    0.55241027168E-10    9    1    7    7
   -0.55408627391E-03    9    1    8    4
    0.64188002145E-10    9    1    8    5
    0.53137453045E-10    9    1    8    8
    0.93849586848E-03    9    1    9    1
    0.24204199420E-10    9    2    1    1
   -0.14938621428E-10    9    2    2    1
    0.24342035667E-10    9    2    2    2
   -0.12010332562E-10    9    2    3    1
    0.15378558884E-02    9    2    3    2
    0.24383322205E-10    9    2    3    3
   -0.22575994439E-02    9    2    4    1
    0.10872934006E-10    9    2    4    2
    0.19222179535E-10    9    2    4    3
   -0.43365071241E-09    9    2    4    4
    0.25186370932E-09    9    2    5    1
   -0.14258597844E-02    9    2    5    4
    0.47750022780E-09    9    2    5    5
    0.10779941420E-09    9    2    6    2
   -0.22058850798E-02    9    2    6    3
   -0.12038797261E-10    9    2    6    4
    0.18238084694E-10    9    2    6    5
    0.20157522239E-10    9    2    6    6
   -0.36306188678E-03    9    2    7    4
    0.46014390164E-10    9    2    7    5
   -0.31402272984E-10    9    2    7    7
    0.28281115133E-03    9    2    8    3
    0.10182392282E-10    9    2    8    6
    0.21067406382E-10    9    2    8    7
   -0.22318477187E-10    9    2    8    8
    0.28387415017E-03    9    2    9    2
    0.89702821299E-02    9    3    1    1
   -0.12733652543E-10    9    3    2    1
    0.73408912049E-02    9    3    2    2
   -0.24915609144E-10    9    3    3    1
    0.10415665613E-01    9    3    3    3
    0.25777133528E-09    9    3    4    1
    0.29559531182E-10    9    3    4    2
    0.11017465933E-01    9    3    4    4
    0.22562814499E-02    9    3    5    1
    0.17321136148E-10    9    3    5    2
   -0.22682771441E-10    9    3    5    3
   -0.45453168882E-09    9    3    5    4
    0.81642835269E-02    9    3    5    5
   -0.11994835754E-10    9    3    6    1
   -0.22060089652E-02    9    3    6    2
   -0.10727842732E-09    9    3    6    3
   -0.36845731571E-10    9    3    6    4
   -0.10142380017E-10    9    3    6    5
    0.10149058940E-01    9    3    6    6
    0.17342046379E-02    9    3    7    1
    0.38798815844E-10    9    3    7    4
    0.36294597781E-03    9    3    7    5
   -0.90280629240E-02    9    3    7    7
    0.12590090066E-02    9    3    8    2
   -0.28978076195E-03    9    3    8    6
   -0.77697759081E-02    9    3    8    8
    0.18256345437E-02    9    3    9    3
    0.15171394699E-10    9    4    1    1
   -0.42086949038E-02    9    4    2    1
    0.20193764839E-10    9    4    2    2
    0.44397514085E-09    9    4    3    1
    0.13752423836E-10    9    4    3    2
   -0.19925376658E-10    9    4    4    1
   -0.37933187655E-09    9    4    4    2
    0.58443769803E-02    9    4    4    3
    0.12921635875E-10    9    4    4    4
    0.49765346304E-03    9    4    5    2
   -0.44960777896E-09    9    4    5    3
   -0.14631447861E-10    9    4    5    4
    0.28573874258E-02    9    4    6    1
   -0.21477459865E-10    9    4    6    3
    0.12076826248E-08    9    4    6    4
    0.47002293830E-02    9    4    6    5
    0.12846802696E-10    9    4    6    6
   -0.58029870586E-03    9    4    7    2
    0.60204618923E-10    9    4    7    3
    0.35216297290E-03    9    4    7    6
    0.10865096989E-10    9    4    7    7
   -0.55413331179E-03    9    4    8    1
   -0.42772908215E-10    9    4    8    4
    0.53099219860E-04    9    4    8    5
    0.15746978020E-02    9    4    8    7
    0.14231428617E-10    9    4    8    8
    0.53505066261E-10    9    4    9    1
    0.69274997234E-03    9    4    9    4
   -0.16614973737E-10    9    5    1    1
    0.43900205096E-09    9    5    2    1
   -0.11170495989E-10    9    5    2    2
    0.42058215033E-02    9    5    3    1
   -0.22093012559E-10    9    5    3    3
   -0.11815166031E-10    9    5    4    1
   -0.29820435052E-02    9    5    4    2
   -0.36904208952E-09    9    5    4    3
   -0.28201474163E-10    9    5    4    4
   -0.11011594827E-10    9    5    5    1
    0.43725660822E-09    9    5    5    2
    0.33549548633E-02    9    5    5    3
   -0.10557927450E-10    9    5    5    4
   -0.12231409196E-10    9    5    5    5
   -0.45272737246E-09    9    5    6    1
    0.12837557174E-10    9    5    6    2
   -0.15065735195E-10    9    5    6    3
    0.46983545861E-02    9    5    6    4
   -0.12110006149E-08    9    5    6    5
   -0.22191786732E-10    9    5    6    6
    0.72709254308E-10    9    5    7    2
    0.58023950244E-03    9    5    7    3
   -0.56431448849E-10    9    5    7    6
   -0.17778374411E-10    9    5    7    7
    0.67488415875E-10    9    5    8    1
   -0.32812578557E-03    9    5    8    4
    0.40882994243E-10    9    5    8    5
   -0.13256357048E-09    9    5    8    7
   -0.18369195115E-10    9    5    8    8
    0.55408610417E-03    9    5    9    1
   -0.51910374775E-10    9    5    9    4
    0.41742800152E-03    9    5    9    5
    0.13244310255E-10    9    6    1    1
    0.14171665861E-09    9    6    2    2
   -0.25251338571E-02    9    6    3    2
   -0.12318194805E-09    9    6    3    3
    0.37582372216E-02    9    6    4    1
   -0.19789893343E-10    9    6    4    3
    0.70737290661E-09    9    6    4    4
   -0.61336934517E-09    9    6    5    1
    0.26511010986E-02    9    6    5    4
   -0.69509177685E-09    9    6    5    5
   -0.15873141819E-10    9    6    6    1
    0.15429546711E-10    9    6    6    2
    0.39109260576E-02    9    6    6    3
   -0.11388074192E-10    9    6    6    5
    0.44182599983E-03    9    6    7    4
   -0.70163243587E-10    9    6    7    5
    0.16266300289E-10    9    6    7    7
   -0.28954021354E-03    9    6    8    3
    0.15152802227E-10    9    6    8    8
   -0.28956199229E-03    9    6    9    2
   -0.23629678420E-10    9    6    9    3
    0.42570797208E-03    9    6    9    6
   -0.52122589560E-10    9    7    1    1
    0.28978304869E-10    9    7    2    1
   -0.28424045900E-10    9    7    2    2
    0.16522667744E-01    9    7    3    1
   -0.43825804211E-10    9    7    3    3
   -0.15334368124E-10    9    7    4    1
   -0.11525784828E-01    9    7    4    2
    0.14122930546E-08    9    7    4    3
   -0.31099313820E-10    9    7    4    4
    0.14624480659E-08    9    7    5    2
    0.11526438343E-01    9    7    5    3
    0.19443081022E-10    9    7    5    4
   -0.49640306285E-10    9    7    5    5
   -0.28951125859E-10    9    7    6    1
    0.20462820918E-10    9    7    6    3
    0.14694290000E-01    9    7    6    4
   -0.22667007108E-08    9    7    6    5
   -0.59342980843E-10    9    7    6    6
   -0.13097804405E-10    9    7    7    2
   -0.39862490736E-02    9    7    7    3
   -0.14865209314E-10    9    7    7    6
    0.13042398493E-09    9    7    7    7
    0.10217794099E-10    9    7    8    1
    0.15746086482E-02    9    7    8    4
   -0.11643239989E-09    9    7    8    5
   -0.47349578430E-10    9    7    8    7
    0.65272810844E-10    9    7    8    8
   -0.46827110754E-02    9    7    9    1
   -0.11429149978E-09    9    7    9    4