  &FCI NORB= 16,NELEC= 14,MS2=  4,
  ORBSYM= 1, 1, 1, 1, 1, 4, 4, 4, 6, 6, 6, 6, 7, 7, 7, 7,
  ISYM=3
 &END
    0.82871979000        1    1    1    1
    0.16171874824E-08    2    1    1    1
    0.59974116776E-01    2    1    2    1
    0.82157950633        2    2    1    1
   -0.11659894864E-07    2    2    2    1
    0.88907112714        2    2    2    2
    0.16333535142E-01    3    1    1    1
    0.84391119819E-09    3    1    2    1
   -0.32414344856E-01    3    1    2    2
    0.68317929554E-01    3    1    3    1
   -0.64985641895E-09    3    2    1    1
   -0.40867660197E-01    3    2    2    1
   -0.15711517733E-08    3    2    2    2
    0.12877236102E-07    3    2    3    1
    0.37818550836E-01    3    2    3    2
    0.81555039027        3    3    1    1
    0.13720841459E-07    3    3    2    1
    0.79839230319        3    3    2    2
    0.53188464623E-01    3    3    3    1
   -0.12358488000E-08    3    3    3    2
    0.86240238419        3    3    3    3
   -0.45953401351E-01    4    1    1    1
   -0.49165110814E-08    4    1    2    1
   -0.15895509539E-01    4    1    2    2
   -0.39640799125E-01    4    1    3    1
   -0.40847321240E-08    4    1    3    2
   -0.62297985529E-01    4    1    3    3
    0.30891855096E-01    4    1    4    1
   -0.30417018367E-07    4    2    1    1
    0.18006729790E-01    4    2    2    1
   -0.31536122722E-07    4    2    2    2
   -0.33384813762E-08    4    2    3    1
   -0.15804117628E-01    4    2    3    2
   -0.25240279914E-07    4    2    3    3
    0.35152259628E-08    4    2    4    1
    0.92991726536E-02    4    2    4    2
   -0.23994070496        4    3    1    1
   -0.32129369768E-08    4    3    2    1
   -0.21756901291        4    3    2    2
   -0.19364137968E-01    4    3    3    1
    0.30034112053E-09    4    3    3    2
   -0.22651375579        4    3    3    3
    0.34878424738E-01    4    3    4    1
    0.17333283419E-07    4    3    4    2
    0.14868047959        4    3    4    3
    0.56675429153        4    4    1    1
    0.31615787066E-08    4    4    2    1
    0.55317558358        4    4    2    2
    0.37229937419E-01    4    4    3    1
    0.62623151447E-08    4    4    3    2
    0.60822090864        4    4    3    3
   -0.44015433140E-01    4    4    4    1
   -0.14951894168E-07    4    4    4    2
   -0.11434399312        4    4    4    3
    0.49543531703        4    4    4    4
    0.98027626519E-09    5    1    1    1
   -0.35045832198E-01    5    1    2    1
    0.51390597478E-08    5    1    2    2
    0.46507815724E-08    5    1    3    1
    0.24624625430E-01    5    1    3    2
   -0.36780778071E-08    5    1    3    3
   -0.13872876362E-09    5    1    4    1
   -0.10990842221E-01    5    1    4    2
   -0.18707802952E-10    5    1    4    3
    0.15120341334E-08    5    1    4    4
    0.25512708345E-01    5    1    5    1
   -0.23483385729        5    2    1    1
    0.35381413353E-08    5    2    2    1
   -0.24023432485        5    2    2    2
    0.17696695338E-01    5    2    3    1
    0.15414341910E-08    5    2    3    2
   -0.21209258172        5    2    3    3
    0.10007599629E-01    5    2    4    1
    0.16040179635E-07    5    2    4    2
    0.11296077850        5    2    4    3
   -0.11911431204        5    2    4    4
   -0.11512839016E-08    5    2    5    1
    0.14682857218        5    2    5    2
    0.30420443100E-07    5    3    1    1
    0.21350110950E-01    5    3    2    1
    0.26817035895E-07    5    3    2    2
   -0.35268099566E-08    5    3    3    1
   -0.17213815258E-01    5    3    3    2
    0.31139297791E-07    5    3    3    3
   -0.23449262966E-08    5    3    4    1
    0.10873743900E-01    5    3    4    2
   -0.16465946360E-07    5    3    4    3
    0.14853213279E-07    5    3    4    4
   -0.14265625255E-01    5    3    5    1
   -0.17181683340E-07    5    3    5    2
    0.13611392952E-01    5    3    5    3
   -0.87999065192E-09    5    4    1    1
   -0.12516252693E-01    5    4    2    1
    0.31202229540E-08    5    4    2    2
   -0.12216848573E-09    5    4    3    1
    0.13372651762E-01    5    4    3    2
   -0.50627818555E-08    5    4    3    3
    0.12427043122E-08    5    4    4    1
   -0.58255471213E-02    5    4    4    2
    0.61204057050E-09    5    4    4    3
   -0.20717628472E-08    5    4    4    4
    0.96520398949E-02    5    4    5    1
   -0.41544832275E-09    5    4    5    2
   -0.68913582358E-02    5    4    5    3
    0.75896725106E-02    5    4    5    4
    0.58359474729        5    5    1    1
   -0.52814493742E-09    5    5    2    1
    0.62128964683        5    5    2    2
   -0.14714509354E-01    5    5    3    1
   -0.61148579027E-08    5    5    3    2
    0.57164857493        5    5    3    3
   -0.96556192086E-02    5    5    4    1
   -0.16090560619E-07    5    5    4    2
   -0.12817257001        5    5    4    3
    0.43213009914        5    5    4    4
   -0.70537544913E-09    5    5    5    1
   -0.13369706778        5    5    5    2
    0.17502076656E-07    5    5    5    3
    0.16313638550E-10    5    5    5    4
    0.48871351377        5    5    5    5
    0.25202584081E-01    6    1    6    1
   -0.20117409748E-09    6    2    6    1
    0.19430628147E-02    6    2    6    2
   -0.29938448337E-02    6    3    6    1
    0.82324793819E-10    6    3    6    2
    0.28329322311E-02    6    3    6    3
    0.10158003053E-01    6    4    6    1
   -0.10915256031E-10    6    4    6    2
   -0.72959535701E-03    6    4    6    3
    0.47290632810E-02    6    4    6    4
    0.17532979392E-09    6    5    6    1
    0.10444827622E-02    6    5    6    2
   -0.12644307984E-09    6    5    6    3
    0.11839427428E-09    6    5    6    4
    0.29656916109E-02    6    5    6    5
    0.35540005574        6    6    1    1
   -0.29668455992E-09    6    6    2    1
    0.35710724243        6    6    2    2
   -0.38208099364E-02    6    6    3    1
   -0.17508305531E-08    6    6    3    2
    0.34040723409        6    6    3    3
    0.64566722172E-02    6    6    4    1
   -0.35840152490E-08    6    6    4    2
   -0.30727293766E-01    6    6    4    3
    0.29342240761        6    6    4    4
    0.11734526718E-09    6    6    5    1
   -0.17211537437E-01    6    6    5    2
    0.24172435695E-08    6    6    5    3
    0.50753953330E-09    6    6    5    4
    0.32352289554        6    6    5    5
    0.35527427184        6    6    6    6
   -0.48792080013E-02    7    1    6    1
    0.10551703022E-08    7    1    6    2
    0.99422246485E-02    7    1    6    3
   -0.11203106580E-03    7    1    6    4
    0.17702956047E-09    7    1    6    5
    0.65416226733E-01    7    1    7    1
    0.68669452156E-09    7    2    6    1
   -0.50773952009E-02    7    2    6    2
   -0.46072645386E-09    7    2    6    3
    0.22734395813E-09    7    2    6    4
    0.65541939539E-03    7    2    6    5
   -0.43597603865E-08    7    2    7    1
    0.18321317450E-01    7    2    7    2
    0.64446226703E-02    7    3    6    1
   -0.46777434546E-09    7    3    6    2
   -0.95817988204E-02    7    3    6    3
    0.19111908157E-02    7    3    6    4
   -0.14120855765E-09    7    3    6    5
   -0.42827634399E-01    7    3    7    1
    0.19947873716E-08    7    3    7    2
    0.37898409495E-01    7    3    7    3
   -0.98107787971E-03    7    4    6    1
    0.42175638284E-09    7    4    6    2
    0.36537741317E-02    7    4    6    3
   -0.80636040503E-03    7    4    6    4
    0.41788559511E-10    7    4    6    5
    0.20132828552E-01    7    4    7    1
   -0.19651298051E-08    7    4    7    2
   -0.17327483342E-01    7    4    7    3
    0.10028569699E-01    7    4    7    4
    0.24656141903E-09    7    5    6    1
    0.12898575892E-02    7    5    6    2
   -0.23482515700E-09    7    5    6    3
    0.70312517818E-10    7    5    6    4
   -0.19728620853E-02    7    5    6    5
   -0.50104562793E-09    7    5    7    1
   -0.78632059451E-02    7    5    7    2
    0.12640246744E-08    7    5    7    3
   -0.96395008070E-10    7    5    7    4
    0.69240832525E-02    7    5    7    5
   -0.13533505666        7    6    1    1
    0.76717720813E-09    7    6    2    1
   -0.14734098707        7    6    2    2
    0.73087671193E-02    7    6    3    1
    0.11473734132E-08    7    6    3    2
   -0.13610809573        7    6    3    3
    0.63848048749E-02    7    6    4    1
    0.64638354464E-08    7    6    4    2
    0.49714750931E-01    7    6    4    3
   -0.78933968096E-01    7    6    4    4
    0.14751330691E-10    7    6    5    1
    0.54598131195E-01    7    6    5    2
   -0.69197824169E-08    7    6    5    3
    0.16293786090E-09    7    6    5    4
   -0.85165694117E-01    7    6    5    5
   -0.43939559053E-02    7    6    6    6
    0.46902739223E-01    7    6    7    6
    0.82032934358        7    7    1    1
   -0.34098406340E-08    7    7    2    1
    0.84457977609        7    7    2    2
   -0.33263416766E-01    7    7    3    1
   -0.53661117002E-08    7    7    3    2
    0.79235972866        7    7    3    3
   -0.15386855499E-01    7    7    4    1
   -0.28532368867E-07    7    7    4    2
   -0.22163518166        7    7    4    3
    0.54851282418        7    7    4    4
    0.11907818985E-09    7    7    5    1
   -0.23321545654        7    7    5    2
    0.29754367143E-07    7    7    5    3
   -0.67308183969E-10    7    7    5    4
    0.59717183716        7    7    5    5
    0.36447617284        7    7    6    6
   -0.15153894524        7    7    7    6
    0.87730855749        7    7    7    7
    0.10292823449E-01    8    1    6    1
   -0.53293295856E-09    8    1    6    2
   -0.54556052770E-02    8    1    6    3
    0.34738535228E-02    8    1    6    4
    0.29494439714E-10    8    1    6    5
   -0.30921539058E-01    8    1    7    1
    0.22155620111E-08    8    1    7    2
    0.21619421314E-01    8    1    7    3
   -0.10187233787E-01    8    1    7    4
    0.36768427466E-09    8    1    7    5
    0.22337231547E-01    8    1    8    1
   -0.56373978855E-09    8    2    6    1
    0.15360511630E-03    8    2    6    2
    0.26785203385E-09    8    2    6    3
   -0.39980498865E-09    8    2    6    4
   -0.31048656213E-02    8    2    6    5
    0.19165649433E-08    8    2    7    1
   -0.56375960362E-02    8    2    7    2
   -0.97450232791E-09    8    2    7    3
    0.11995527492E-08    8    2    7    4
    0.69028984082E-02    8    2    7    5
   -0.13088141823E-08    8    2    8    1
    0.76783735400E-02    8    2    8    2
   -0.56798485118E-02    8    3    6    1
    0.26394126247E-09    8    3    6    2
    0.27945112837E-02    8    3    6    3
   -0.32760767606E-02    8    3    6    4
    0.39610557911E-09    8    3    6    5
    0.18709386192E-01    8    3    7    1
   -0.97544587103E-09    8    3    7    2
   -0.15193097850E-01    8    3    7    3
    0.10042442252E-01    8    3    7    4
   -0.10485270251E-08    8    3    7    5
   -0.12901056338E-01    8    3    8    1
    0.54818807995E-09    8    3    8    2
    0.13048704821E-01    8    3    8    3
    0.41389682634E-02    8    4    6    1
   -0.42082195412E-09    8    4    6    2
   -0.34241839949E-02    8    4    6    3
    0.11566278958E-02    8    4    6    4
   -0.33895624290E-10    8    4    6    5
   -0.11364110056E-01    8    4    7    1
    0.14774159670E-08    8    4    7    2
    0.12322956011E-01    8    4    7    3
   -0.59944932335E-02    8    4    7    4
    0.11153368394E-09    8    4    7    5
    0.83392209136E-02    8    4    8    1
   -0.67953634191E-09    8    4    8    2
   -0.62387948979E-02    8    4    8    3
    0.72897641961E-02    8    4    8    4
    0.14104871454E-09    8    5    6    1
   -0.33559274261E-02    8    5    6    2
    0.46024026037E-09    8    5    6    3
    0.35357771263E-10    8    5    6    4
   -0.20249364790E-02    8    5    6    5
    0.56111323807E-09    8    5    7    1
    0.87497713436E-02    8    5    7    2
   -0.13832298912E-08    8    5    7    3
    0.16007275528E-09    8    5    7    4
   -0.36299737296E-02    8    5    7    5
   -0.25380081817E-09    8    5    8    1
   -0.17486587562E-02    8    5    8    2
    0.36515984043E-09    8    5    8    3
   -0.13833525552E-10    8    5    8    4
    0.76833840023E-02    8    5    8    5
    0.74387261937E-02    8    6    1    1
   -0.38244732148E-09    8    6    2    1
   -0.43513534838E-02    8    6    2    2
   -0.35985348794E-02    8    6    3    1
    0.25045792195E-10    8    6    3    2
   -0.40508817058E-02    8    6    3    3
    0.71636656304E-03    8    6    4    1
   -0.20231742884E-08    8    6    4    2
   -0.15122481783E-01    8    6    4    3
   -0.76486961236E-02    8    6    4    4
    0.14134663993E-10    8    6    5    1
   -0.19621168190E-01    8    6    5    2
    0.24745581686E-08    8    6    5    3
    0.12113137099E-10    8    6    5    4
   -0.77686727953E-02    8    6    5    5
    0.38824412903E-02    8    6    6    6
    0.88837186144E-02    8    6    7    6
    0.38858266455E-02    8    6    7    7
    0.20938361051E-01    8    6    8    6
   -0.22352900178        8    7    1    1
    0.17175577311E-08    8    7    2    1
   -0.21723301733        8    7    2    2
    0.16325548829E-01    8    7    3    1
    0.14467380346E-08    8    7    3    2
   -0.20329208916        8    7    3    3
    0.10712268498E-01    8    7    4    1
    0.14341743362E-07    8    7    4    2
    0.10918660583        8    7    4    3
   -0.11656816349        8    7    4    4
    0.18055368215E-10    8    7    5    1
    0.12744116603        8    7    5    2
   -0.16149707704E-07    8    7    5    3
    0.22223439164E-09    8    7    5    4
   -0.12790828939        8    7    5    5
   -0.74898836512E-02    8    7    6    6
    0.57414236035E-01    8    7    7    6
   -0.23527747073        8    7    7    7
   -0.19555163849E-01    8    7    8    6
    0.14006774221        8    7    8    7
    0.59923055629        8    8    1    1
   -0.14453143165E-08    8    8    2    1
    0.61798876222        8    8    2    2
   -0.14413479891E-01    8    8    3    1
   -0.32083096480E-08    8    8    3    2
    0.58673595993        8    8    3    3
   -0.96730956429E-02    8    8    4    1
   -0.16812888936E-07    8    8    4    2
   -0.13156286948        8    8    4    3
    0.44180504820        8    8    4    4
    0.18480492112E-09    8    8    5    1
   -0.13351050955        8    8    5    2
    0.17118507036E-07    8    8    5    3
    0.78253678846E-10    8    8    5    4
    0.47835626692        8    8    5    5
    0.34321206148        8    8    6    6
   -0.89613483726E-01    8    8    7    6
    0.63172430736        8    8    7    7
   -0.61985287801E-02    8    8    8    6
   -0.13425318559        8    8    8    7
    0.50582951101        8    8    8    8
    0.19148588897E-02    9    1    9    1
   -0.14715159054E-03    9    2    9    1
    0.33352780595E-03    9    2    9    2
   -0.21767726471E-03    9    3    9    1
   -0.10975161224E-03    9    3    9    2
    0.31054554948E-03    9    3    9    3
    0.22373909170E-03    9    4    9    1
   -0.77764799550E-04    9    4    9    2
    0.10318656632E-03    9    4    9    3
    0.43444133845E-03    9    4    9    4
    0.14171111148E-03    9    5    9    1
    0.22121445463E-03    9    5    9    2
   -0.92912724669E-04    9    5    9    3
   -0.16454162558E-03    9    5    9    4
    0.61566476140E-03    9    5    9    5
    0.85763175559E-02    9    6    9    6
    0.27606543683E-02    9    7    9    6
    0.13027041650E-02    9    7    9    7
    0.16341394202E-02    9    8    9    6
    0.10022149187E-02    9    8    9    7
    0.19299592828E-02    9    8    9    8
    0.22458668149        9    9    1    1
   -0.44803217429E-03    9    9    2    1
    0.22189393382        9    9    2    2
   -0.69463243945E-03    9    9    3    1
   -0.85059355018E-04    9    9    3    2
    0.21701401993        9    9    3    3
    0.33145752142E-02    9    9    4    1
   -0.20752497101E-03    9    9    4    2
   -0.76599882785E-02    9    9    4    3
    0.20398002138        9    9    4    4
   -0.12116570963E-02    9    9    5    1
   -0.94764087714E-03    9    9    5    2
    0.65665417852E-04    9    9    5    3
   -0.59119871182E-03    9    9    5    4
    0.21829313686        9    9    5    5
    0.24154896849        9    9    6    6
    0.67526312105E-02    9    9    7    6
    0.22512429171        9    9    7    7
    0.67266604822E-02    9    9    8    6
    0.29187396370E-02    9    9    8    7
    0.22376372523        9    9    8    8
    0.22405369672        9    9    9    9
    0.45811117068E-02   10    1    9    1
   -0.28767630891E-02   10    1    9    2
    0.17652339297E-02   10    1    9    3
   -0.40637381974E-03   10    1    9    4
    0.80410965317E-03   10    1    9    5
    0.67078942992E-01   10    1   10    1
   -0.22129683351E-02   10    2    9    1
    0.28618289944E-02   10    2    9    2
   -0.95987312780E-03   10    2    9    3
   -0.27603584780E-03   10    2    9    4
   -0.26578210654E-05   10    2    9    5
   -0.37442076728E-01   10    2   10    1
    0.33802336448E-01   10    2   10    2
    0.11621378175E-02   10    3    9    1
   -0.82795482607E-03   10    3    9    2
    0.21639996139E-02   10    3    9    3
    0.18422888369E-03   10    3    9    4
   -0.28505820798E-03   10    3    9    5
    0.21216616961E-01   10    3   10    1
   -0.87794809222E-02   10    3   10    2
    0.23417508425E-01   10    3   10    3
   -0.12261009440E-02   10    4    9    1
   -0.55706103583E-04   10    4    9    2
    0.27355046586E-04   10    4    9    3
    0.14597574919E-02   10    4    9    4
   -0.72876978972E-03   10    4    9    5
   -0.11601956171E-01   10    4   10    1
    0.22966917806E-02   10    4   10    2
   -0.68185056055E-02   10    4   10    3
    0.12400556273E-01   10    4   10    4
    0.15510792046E-02   10    5    9    1
   -0.45549047876E-03   10    5    9    2
   -0.14727880511E-03   10    5    9    3
   -0.59069630286E-03   10    5    9    4
    0.14313060895E-02   10    5    9    5
    0.16643732161E-01   10    5   10    1
   -0.11393306654E-01   10    5   10    2
    0.12967017624E-02   10    5   10    3
   -0.52130242732E-02   10    5   10    4
    0.12406054445E-01   10    5   10    5
    0.11023318899E-02   10    6    9    6
   -0.71680540991E-03   10    6    9    7
   -0.68841086829E-03   10    6    9    8
    0.30437941193E-02   10    6   10    6
   -0.19153283908E-02   10    7    9    6
    0.24685412174E-02   10    7    9    7
    0.24936715232E-03   10    7    9    8
   -0.91232714404E-02   10    7   10    6
    0.33090928362E-01   10    7   10    7
   -0.17579093017E-02   10    8    9    6
   -0.71376691829E-03   10    8    9    7
    0.16746631440E-02   10    8    9    8
    0.61242511965E-03   10    8   10    6
   -0.94184498204E-02   10    8   10    7
    0.12693472012E-01   10    8   10    8
    0.54706328953E-01   10    9    1    1
   -0.26564143496E-02   10    9    2    1
    0.55685232037E-01   10    9    2    2
    0.27775581043E-02   10    9    3    1
    0.14321600340E-02   10    9    3    2
    0.56729583546E-01   10    9    3    3
   -0.43085381074E-02   10    9    4    1
   -0.53833523956E-03   10    9    4    2
   -0.15821421398E-01   10    9    4    3
    0.37648359391E-01   10    9    4    4
    0.20659814938E-02   10    9    5    1
   -0.16205126584E-01   10    9    5    2
   -0.66181980088E-03   10    9    5    3
    0.41849477393E-03   10    9    5    4
    0.36188584396E-01   10    9    5    5
    0.14699008802E-01   10    9    6    6
   -0.12926731514E-01   10    9    7    6
    0.54394463372E-01   10    9    7    7
   -0.26287260992E-02   10    9    8    6
   -0.15800275702E-01   10    9    8    7
    0.37526091206E-01   10    9    8    8
   -0.18124173454E-03   10    9    9    9
    0.64119491976E-02   10    9   10    9
    0.82199793592       10   10    1    1
   -0.35699183918E-01   10   10    2    1
    0.81531497149       10   10    2    2
    0.32667345510E-01   10   10    3    1
    0.17038373663E-01   10   10    3    2
    0.82279119809       10   10    3    3
   -0.52904465749E-01   10   10    4    1
   -0.71446598669E-02   10   10    4    2
   -0.22132000875       10   10    4    3
    0.58043208976       10   10    4    4
    0.21088247759E-01   10   10    5    1
   -0.21646183408       10   10    5    2
   -0.85458859839E-02   10   10    5    3
    0.39798125234E-02   10   10    5    4
    0.58175525644       10   10    5    5
    0.34559978104       10   10    6    6
   -0.13969219383       10   10    7    6
    0.80896551970       10   10    7    7
   -0.43133966956E-02   10   10    8    6
   -0.20716873764       10   10    8    7
    0.59728141822       10   10    8    8
    0.21950446679       10   10    9    9
    0.60822164192E-01   10   10   10    9
    0.87672726110       10   10   10   10
   -0.22290173715E-02   11    1    9    1
    0.14557012558E-02   11    1    9    2
   -0.89041717196E-03   11    1    9    3
    0.79265754115E-04   11    1    9    4
   -0.27319582482E-03   11    1    9    5
   -0.34388512242E-01   11    1   10    1
    0.18895421959E-01   11    1   10    2
   -0.99639471806E-02   11    1   10    3
    0.75721128569E-02   11    1   10    4
   -0.99629032125E-02   11    1   10    5
    0.21231547238E-01   11    1   11    1
    0.13892769913E-02   11    2    9    1
   -0.34419079438E-03   11    2    9    2
   -0.16247876861E-03   11    2    9    3
   -0.57325760580E-03   11    2    9    4
    0.13816537142E-02   11    2    9    5
    0.14754318239E-01   11    2   10    1
   -0.99072361275E-02   11    2   10    2
    0.99029487858E-03   11    2   10    3
   -0.48625265677E-02   11    2   10    4
    0.11385943712E-01   11    2   10    5
   -0.89145677140E-02   11    2   11    1
    0.10474412795E-01   11    2   11    2
   -0.87256757398E-03   11    3    9    1
   -0.24411850772E-03   11    3    9    2
    0.29644407464E-03   11    3    9    3
    0.14572233714E-02   11    3    9    4
   -0.65932029224E-03   11    3    9    5
   -0.54411724828E-02   11    3   10    1
   -0.41475446451E-03   11    3   10    2
   -0.40222247059E-02   11    3   10    3
    0.10475066429E-01   11    3   10    4
   -0.31322511229E-02   11    3   10    5
    0.33621820173E-02   11    3   11    1
   -0.29720661216E-02   11    3   11    2
    0.96158800054E-02   11    3   11    3
   -0.21213768826E-03   11    4    9    1
   -0.10668854107E-02   11    4    9    2
    0.20491337971E-02   11    4    9    3
    0.14601330909E-02   11    4    9    4
   -0.91647555303E-03   11    4    9    5
    0.15068014286E-01   11    4   10    1
   -0.94087274195E-02   11    4   10    2
    0.14641753776E-01   11    4   10    3
    0.37061478348E-03   11    4   10    4
   -0.33259777973E-03   11    4   10    5
   -0.95033067068E-02   11    4   11    1
   -0.57411558579E-03   11    4   11    2
    0.27836634724E-02   11    4   11    3
    0.19012827748E-01   11    4   11    4
   -0.98794005637E-04   11    5    9    1
    0.17945515293E-02   11    5    9    2
   -0.96331030600E-03   11    5    9    3
   -0.70717863153E-03   11    5    9    4
    0.13009980987E-02   11    5    9    5
   -0.16374505008E-01   11    5   10    1
    0.16785543218E-01   11    5   10    2
   -0.55670524056E-02   11    5   10    3
   -0.81740019098E-03   11    5   10    4
   -0.31028764255E-02   11    5   10    5
    0.10811896932E-01   11    5   11    1
   -0.25041352115E-02   11    5   11    2
   -0.26383367920E-02   11    5   11    3
   -0.94413458967E-02   11    5   11    4
    0.14733787863E-01   11    5   11    5
   -0.10341658408E-02   11    6    9    6
   -0.79863845437E-03   11    6    9    7
   -0.19712016165E-02   11    6    9    8
    0.75329702958E-03   11    6   10    6
    0.91800318053E-03   11    6   10    7
   -0.38591346421E-02   11    6   10    8
    0.27520726404E-02   11    6   11    6
   -0.16675628867E-02   11    7    9    6
   -0.12405586602E-02   11    7    9    7
    0.68497057902E-03   11    7    9    8
    0.20037946898E-02   11    7   10    6
   -0.12111024002E-01   11    7   10    7
    0.10689537087E-01   11    7   10    8
   -0.23979418878E-02   11    7   11    6
    0.98796973193E-02   11    7   11    7
   -0.50648925549E-02   11    8    9    6
    0.30360163938E-03   11    8    9    7
    0.10891006112E-02   11    8    9    8
   -0.57333953145E-02   11    8   10    6
    0.16244469338E-01   11    8   10    7
   -0.17144653652E-02   11    8   10    8
   -0.14910864471E-02   11    8   11    6
   -0.41395485730E-02   11    8   11    7
    0.14718278749E-01   11    8   11    8
   -0.10658445649E-01   11    9    1    1
    0.68980415326E-03   11    9    2    1
   -0.62248204845E-02   11    9    2    2
    0.25578527714E-03   11    9    3    1
   -0.17588275222E-03   11    9    3    2
   -0.46488871915E-02   11    9    3    3
   -0.19006093239E-03   11    9    4    1
    0.61900666793E-05   11    9    4    2
    0.75950045662E-02   11    9    4    3
   -0.23063091582E-03   11    9    4    4
   -0.29814971330E-03   11    9    5    1
    0.53841502057E-02   11    9    5    2
    0.19457983056E-03   11    9    5    3
   -0.34144799357E-03   11    9    5    4
   -0.40823428617E-02   11    9    5    5
   -0.14199703549E-01   11    9    6    6
   -0.43263419088E-02   11    9    7    6
   -0.90471038252E-02   11    9    7    7
   -0.73594014113E-02   11    9    8    6
    0.29387236689E-02   11    9    8    7
   -0.67106682223E-02   11    9    8    8
   -0.11034083017E-01   11    9    9    9
    0.65965463082E-03   11    9   10    9
   -0.57443313960E-02   11    9   10   10
    0.68456437436E-02   11    9   11    9
   -0.21086175796       11   10    1    1
    0.14582489312E-01   11   10    2    1
   -0.19113991309       11   10    2    2
   -0.92004760449E-02   11   10    3    1
   -0.62385087851E-02   11   10    3    2
   -0.18987005810       11   10    3    3
    0.26191679589E-01   11   10    4    1
    0.23687076380E-02   11   10    4    2
    0.11491572397       11   10    4    3
   -0.10379331494       11   10    4    4
   -0.90938184994E-02   11   10    5    1
    0.11011488796       11   10    5    2
    0.43231157426E-02   11   10    5    3
   -0.28865711072E-02   11   10    5    4
   -0.10982430044       11   10    5    5
   -0.17008778674E-01   11   10    6    6
    0.45301959560E-01   11   10    7    6
   -0.19616257142       11   10    7    7
   -0.16618240950E-01   11   10    8    6
    0.10686112765       11   10    8    7
   -0.11241383329       11   10    8    8
   -0.26141197536E-02   11   10    9    9
   -0.14440281681E-01   11   10   10    9
   -0.21022488929       11   10   10   10
    0.74118969242E-02   11   10   11    9
    0.12050504592       11   10   11   10
    0.53301804569       11   11    1    1
   -0.14039527758E-01   11   11    2    1
    0.53414224123       11   11    2    2
    0.14412353594E-01   11   11    3    1
    0.76357367580E-02   11   11    3    2
    0.53996469736       11   11    3    3
   -0.26527146081E-01   11   11    4    1
   -0.37555508371E-02   11   11    4    2
   -0.10398505057       11   11    4    3
    0.43020124472       11   11    4    4
    0.11643336222E-01   11   11    5    1
   -0.10605089567       11   11    5    2
   -0.46972806619E-02   11   11    5    3
    0.10305156448E-02   11   11    5    4
    0.42491760323       11   11    5    5
    0.30294849486       11   11    6    6
   -0.70491871652E-01   11   11    7    6
    0.52973077634       11   11    7    7
   -0.67332805390E-02   11   11    8    6
   -0.10368981692       11   11    8    7
    0.43388068208       11   11    8    8
    0.21337873665       11   11    9    9
    0.35579415071E-01   11   11   10    9
    0.56187005635       11   11   10   10
   -0.28269493047E-02   11   11   11    9
   -0.96007347760E-01   11   11   11   10
    0.42416383087       11   11   11   11
    0.50153298724E-03   12    1    9    1
    0.75421630737E-03   12    1    9    2
   -0.70616681156E-03   12    1    9    3
    0.29607791950E-03   12    1    9    4
    0.92936670760E-04   12    1    9    5
   -0.14813290414E-01   12    1   10    1
    0.85519960099E-02   12    1   10    2
   -0.48144714623E-02   12    1   10    3
    0.24299100218E-02   12    1   10    4
   -0.35398860953E-02   12    1   10    5
    0.83036314797E-02   12    1   11    1
   -0.30985799066E-02   12    1   11    2
    0.82552697545E-03   12    1   11    3
   -0.48181020662E-02   12    1   11    4
    0.50638913385E-02   12    1   11    5
    0.49616223025E-02   12    1   12    1
    0.57801726401E-03   12    2    9    1
   -0.38709990705E-03   12    2    9    2
    0.58956126997E-04   12    2    9    3
   -0.91607426862E-04   12    2    9    4
    0.28913511804E-03   12    2    9    5
    0.72087386609E-02   12    2   10    1
   -0.56841508019E-02   12    2   10    2
    0.11416105351E-02   12    2   10    3
   -0.13262922105E-02   12    2   10    4
    0.37858047980E-02   12    2   10    5
   -0.38801929224E-02   12    2   11    1
    0.34033582246E-02   12    2   11    2
   -0.63961586432E-03   12    2   11    3
    0.79902132117E-03   12    2   11    4
   -0.20963683810E-02   12    2   11    5
   -0.16107069301E-02   12    2   12    1
    0.14044472732E-02   12    2   12    2
   -0.55862919315E-03   12    3    9    1
    0.11726239449E-04   12    3    9    2
   -0.10053755926E-03   12    3    9    3
    0.29673022566E-03   12    3    9    4
   -0.16539276035E-03   12    3    9    5
   -0.34893259677E-02   12    3   10    1
    0.79181228820E-03   12    3   10    2
   -0.33229130739E-02   12    3   10    3
    0.31170627307E-02   12    3   10    4
   -0.90811553305E-03   12    3   10    5
    0.17313336593E-02   12    3   11    1
   -0.84124829077E-03   12    3   11    2
    0.26623350875E-02   12    3   11    3
   -0.58790197096E-03   12    3   11    4
   -0.21864292154E-03   12    3   11    5