 &FCI NORB=  6,NELEC=  6,MS2= 0,
  ORBSYM=1,2,3,5,6,7,
  ISYM=1,
  OCC=  3,  1,  1,  0,  2,  0,  0,  0,
  CLOSED=  3,  1,  1,  0,  2,  0,  0,  0,
 /
  0.8518895588679448E+00   1   1   1   1
  0.6251842255408117E+00   2   2   1   1
  0.5759032384802518E+00   2   2   2   2
  0.6251842255408118E+00   3   3   1   1
  0.5300390740274756E+00   3   3   2   2
  0.5759032384802518E+00   3   3   3   3
  0.8317671191633389E+00   4   4   1   1
  0.6412605518020240E+00   4   4   2   2
  0.6412605518020243E+00   4   4   3   3
  0.8703244358915494E+00   4   4   4   4
  0.6468730937077564E+00   5   5   1   1
  0.6008329581671019E+00   5   5   2   2
  0.5568354573898904E+00   5   5   3   3
  0.6899555745763084E+00   5   5   4   4
  0.6608401569371327E+00   5   5   5   5
  0.6468730937077561E+00   6   6   1   1
  0.5568354573898899E+00   6   6   2   2
  0.6008329581671020E+00   6   6   3   3
  0.6899555745763077E+00   6   6   4   4
  0.6076040615178878E+00   6   6   5   5
  0.6608401569371324E+00   6   6   6   6
  0.4878252305004194E-01   2   1   2   1
  0.4372911964106620E-01   5   4   2   1
  0.5080179918911176E-01   5   4   5   4
  0.4878252305004200E-01   3   1   3   1
  0.4372911964106623E-01   6   4   3   1
  0.5080179918911178E-01   6   4   6   4
  0.2293208222638808E-01   3   2   3   2
  0.2199875038866965E-01   6   5   3   2
  0.2661804770860349E-01   6   5   6   5
  0.1969838075091410E+00   4   1   4   1
  0.1504980914406447E+00   5   2   4   1
  0.1860405432581603E+00   5   2   5   2
  0.1504980914406448E+00   6   3   4   1
  0.1502279387052547E+00   6   3   5   2
  0.1860405432581604E+00   6   3   6   3
  0.3424926599318481E-01   4   2   4   2
  0.2277843168044873E-01   5   1   4   2
  0.1881320800996252E-01   5   1   5   1
  0.3424926599318485E-01   4   3   4   3
  0.2277843168044875E-01   6   1   4   3
  0.1881320800996253E-01   6   1   6   1
  0.1790630227644994E-01   5   3   5   3
  0.1790630227651973E-01   6   2   5   3
  0.1790630227644993E-01   6   2   6   2
 -0.4258021483788708E+01   1   1   0   0
 -0.3405555563967010E+01   2   2   0   0
 -0.3405555563967011E+01   3   3   0   0
 -0.2764326080107080E+01   4   4   0   0
 -0.3087285205033107E+01   5   5   0   0
 -0.3087285205033107E+01   6   6   0   0
 -0.9569267075704401E+02   0   0   0   0
