 &FCI NORB=  44,NELEC= 4,MS2=0,
  ORBSYM=1,1,1,3,4,1,3,4,1,1,1,2,3,4,1,4,3,1,1,3,4,1,2,3,4,3,4,1,2,1,1,3,4,1,1,1,2,1,4,3,1,4,3,1
  ISYM=1,
 &END
 -0.3850430880369487    1    1  0  0
 0.08801023810298511    2    1  0  0
 2.314604382774071    2    2  0  0
 -0.05571566951996343    3    1  0  0
 -0.5178431698902489    3    2  0  0
 -3.513003569015159    3    3  0  0
 -0.6786519351989126    4    4  0  0
 -0.6786519351989145    5    5  0  0
 -0.04775789698164364    6    1  0  0
 -0.003939077450025229    6    2  0  0
 0.7642948108286524    6    3  0  0
 0.6562638319527149    6    6  0  0
 -0.3715944061922308    7    4  0  0
 -0.7768836098953963    7    7  0  0
 -0.3715944061922308    8    5  0  0
 -0.7768836098953902    8    8  0  0
 0.04722821419674892    9    1  0  0
 0.3136583918583548    9    2  0  0
 -0.4105672780709329    9    3  0  0
 2.816811368544172    9    6  0  0
 -0.6484206947219511    9    9  0  0
 -0.001680749356406323   10    1  0  0
 -0.7464267409176998   10    2  0  0
 1.776206034828627   10    3  0  0
 -1.335681658672581   10    6  0  0
 -0.7542285658086142   10    9  0  0
 -0.6804838402643965   10   10  0  0
 -0.487375440717035   11   11  0  0
 -0.4873754407170347   12   12  0  0
 1.642474468653598   13    4  0  0
 0.9897722736825911   13    7  0  0
 0.0791594247902567   13   13  0  0
 1.642474468653601   14    5  0  0
 0.9897722736825822   14    8  0  0
 0.07915942479025691   14   14  0  0
 0.08631798974354209   15    1  0  0
 -0.02011714484561907   15    2  0  0
 -0.1653244795071313   15    3  0  0
 -0.6959067532198357   15    6  0  0
 -1.008271414093497   15    9  0  0
 -0.3708970111834279   15   10  0  0
 -0.3844589097464568   15   15  0  0
 -0.05614749108642243   16    5  0  0
 -0.02542115634333728   16    8  0  0
 0.8518306062137397   16   14  0  0
 -0.4906478478397304   16   16  0  0
 -0.05614749108642218   17    4  0  0
 -0.0254211563433378   17    7  0  0
 0.8518306062137438   17   13  0  0
 -0.4906478478397285   17   17  0  0
 -0.1752380810946975   18    1  0  0
 0.7870445893612392   18    2  0  0
 0.1128243950169649   18    3  0  0
 -0.3937071670966337   18    6  0  0
 -0.1272424581450817   18    9  0  0
 -1.674481825221902   18   10  0  0
 0.2419238191912028   18   15  0  0
 1.312144915620393   18   18  0  0
 0.05345956728242188   19    1  0  0
 -0.05508973626114799   19    2  0  0
 -0.3354746879576841   19    3  0  0
 0.6918519485800078   19    6  0  0
 -0.1175090831381007   19    9  0  0
 0.0453385738142765   19   10  0  0
 -0.4860280470080856   19   15  0  0
 1.67360991979451   19   18  0  0
 1.111539585652184   19   19  0  0
 -0.4561943009493132   20    4  0  0
 0.5890002118024588   20    7  0  0
 -0.8823331016606126   20   13  0  0
 -0.8618608474375824   20   17  0  0
 -0.9397376082015364   20   20  0  0
 -0.4561943009493195   21    5  0  0
 0.589000211802463   21    8  0  0
 -0.8823331016605892   21   14  0  0
 -0.8618608474375935   21   16  0  0
 -0.9397376082015259   21   21  0  0
 -0.6290865871409852   22   11  0  0
 -0.8686672829032961   22   22  0  0
 -0.6290865871409851   23   12  0  0
 -0.8686672829032915   23   23  0  0
 -0.3797714041000001   24   24  0  0
 -0.3797714040999997   25   25  0  0
 -0.408228967902128   26    4  0  0
 0.1682979353569172   26    7  0  0
 1.137769422224184   26   13  0  0
 -0.5249178337773343   26   17  0  0
 0.2936711665972682   26   20  0  0
 0.5141890409460894   26   26  0  0
 -0.4082289679021174   27    5  0  0
 0.1682979353569075   27    8  0  0
 1.137769422224202   27   14  0  0
 -0.5249178337773174   27   16  0  0
 0.2936711665972994   27   21  0  0
 0.5141890409460791   27   27  0  0
 0.9448213959502996   28   11  0  0
 0.2002644423954208   28   22  0  0
 0.2114503013217778   28   28  0  0
 0.9448213959503008   29   12  0  0
 0.2002644423954192   29   23  0  0
 0.2114503013217746   29   29  0  0
 -0.02553097697272555   30    1  0  0
 0.00234843548713005   30    2  0  0
 0.2004930299137609   30    3  0  0
 -0.7312844553191891   30    6  0  0
 0.07667263922269671   30    9  0  0
 0.647947753849709   30   10  0  0
 0.2686441652216165   30   15  0  0
 0.4722382013630025   30   18  0  0
 1.330546052313744   30   19  0  0
 -0.7911439293738863   30   30  0  0
 -0.1397496197372553   31    1  0  0
 0.2234000010489464   31    2  0  0
 -0.1597831467630054   31    3  0  0
 0.3738012442535379   31    6  0  0
 -0.3704542347853665   31    9  0  0
 0.3380761475455308   31   10  0  0
 0.684587068404897   31   15  0  0
 0.3672128380964126   31   18  0  0
 -1.107290470142701   31   19  0  0
 -0.5391690444507815   31   30  0  0
 0.7798784111843375   31   31  0  0
 -0.005874605369743232   32    4  0  0
 0.02496959129015384   32    7  0  0
 -0.1322436634182745   32   13  0  0
 -0.01786314255440595   32   17  0  0
 -0.4186031789117232   32   20  0  0
 1.177472498754881   32   26  0  0
 2.048829952754089   32   32  0  0
 -0.005874605369741657   33    5  0  0
 0.02496959129015396   33    8  0  0
 -0.1322436634182743   33   14  0  0
 -0.01786314255440588   33   16  0  0
 -0.4186031789116978   33   21  0  0
 1.177472498754891   33   27  0  0
 2.048829952754086   33   33  0  0
 0.154019395445983   34    1  0  0
 0.07850578870476825   34    2  0  0
 0.2449801788046415   34    3  0  0
 -0.9298213595529612   34    6  0  0
 0.3341711698514149   34    9  0  0
 0.3704160413807469   34   10  0  0
 -0.1932858888363942   34   15  0  0
 0.6361737439407282   34   18  0  0
 -0.3826622812659448   34   19  0  0
 -0.05696874024035439   34   30  0  0
 1.123044581586121   34   31  0  0
 1.65090194529804   34   34  0  0
 0.007586334414497097   35    1  0  0
 0.02241504202841833   35    2  0  0
 0.09589982675742777   35    3  0  0
 -0.4446691062852032   35    6  0  0
 0.2908417761710791   35    9  0  0
 0.2707391237841215   35   10  0  0
 -0.3058919761080451   35   15  0  0
 0.03964852008662235   35   18  0  0
 -0.01729018547636307   35   19  0  0
 0.1336349676526585   35   30  0  0
 -0.02692472849231219   35   31  0  0
 -1.227425873155922   35   34  0  0
 0.5253331187322164   35   35  0  0
 -0.05104367507614537   36    1  0  0
 -0.008331468324405174   36    2  0  0
 -0.02721860187831337   36    3  0  0
 0.1345950437455626   36    6  0  0
 -0.1024751545989846   36    9  0  0
 0.1431709290198941   36   10  0  0
 0.1020798793657911   36   15  0  0
 -0.211079381503963   36   18  0  0
 -0.2470755898309901   36   19  0  0
 0.1519595534351922   36   30  0  0
 -0.221056192245867   36   31  0  0
 0.2831935604649956   36   34  0  0
 -0.6468334107403416   36   35  0  0
 2.365579843240206   36   36  0  0
 -0.07304973055086282   37   12  0  0
 -0.1248720580708019   37   23  0  0
 0.3160860629475575   37   29  0  0
 2.600090142762267   37   37  0  0
 -0.07304973055086282   38   11  0  0
 -0.1248720580708024   38   22  0  0
 0.3160860629475569   38   28  0  0
 2.600090142762268   38   38  0  0
 -0.1230049960680397   39    5  0  0
 0.02713854862008417   39    8  0  0
 0.2276124090990827   39   14  0  0
 -0.01014740617595506   39   16  0  0
 -0.1444195561962422   39   21  0  0
 -0.1128493079327873   39   27  0  0
 0.6244775060124828   39   33  0  0
 2.406768132029192   39   39  0  0
 -0.1230049960680402   40    4  0  0
 0.02713854862008357   40    7  0  0
 0.2276124090990846   40   13  0  0
 -0.01014740617595478   40   17  0  0
 -0.1444195561962393   40   20  0  0
 -0.112849307932793   40   26  0  0
 0.6244775060124825   40   32  0  0
 2.406768132029193   40   40  0  0
 -0.01879195748830854   41    1  0  0
 -0.0038573779297127   41    2  0  0
 -0.02381131093394109   41    3  0  0
 0.06007904840574398   41    6  0  0
 0.005703881620580293   41    9  0  0
 0.01940409431507711   41   10  0  0
 0.2277378008542034   41   15  0  0
 0.1711385044595726   41   18  0  0
 0.08992891772325309   41   19  0  0
 0.06265711144830352   41   30  0  0
 -0.03697114419821364   41   31  0  0
 0.4558110014825258   41   34  0  0
 -0.8772799797742379   41   35  0  0
 -0.2859168686724458   41   36  0  0
 2.097324099531265   41   41  0  0
 0.02805930066778901   42    5  0  0
 -0.01421610725700465   42    8  0  0
 -0.01285063228948577   42   14  0  0
 -0.0006984955853437703   42   16  0  0
 0.1645626994338587   42   21  0  0
 -0.1961062998708594   42   27  0  0
 0.2679725649409613   42   33  0  0
 0.008078179628260296   42   39  0  0
 2.715930095177021   42   42  0  0
 0.02805930066778991   43    4  0  0
 -0.01421610725700516   43    7  0  0
 -0.01285063228948585   43   13  0  0
 -0.0006984955853435023   43   17  0  0
 0.1645626994338637   43   20  0  0
 -0.196106299870856   43   26  0  0
 0.2679725649409595   43   32  0  0
 0.008078179628260962   43   40  0  0
 2.715930095177023   43   43  0  0
 -0.03075422112311955   44    1  0  0
 0.0461532724161712   44    2  0  0
 -0.1182801200991107   44    3  0  0
 0.2790011480270012   44    6  0  0
 -0.05808340073303428   44    9  0  0
 -0.1288023878576246   44   10  0  0
 0.009062413880921017   44   15  0  0
 -0.2430972936957481   44   18  0  0
 -0.04034911551216824   44   19  0  0
 0.004774036110567958   44   30  0  0
 0.1385767040825764   44   31  0  0
 0.07858598960071864   44   34  0  0
 -0.2849013469843965   44   35  0  0
 -0.5601799554506022   44   36  0  0
 -0.3006293157172909   44   41  0  0
 2.555406086152845   44   44  0  0
 -1.5044761979  0  0  0  0
