  &FCI NORB= 12,NELEC= 12,MS2= 12,
  ORBSYM= 1, 1, 1, 1, 1, 1, 1, 1, 1, 1, 1, 1,
  ISYM=0
 &END
    0.73211099735        1    1    1    1
   -0.48332192456E-03    2    1    1    1
    0.37058109619E-01    2    1    2    1
    0.65712068056        2    2    1    1
   -0.45122103986E-03    2    2    2    1
    0.73017678781        2    2    2    2
   -0.85769003197E-03    3    1    1    1
    0.27402146438E-04    3    1    2    1
   -0.74424100296E-03    3    1    2    2
    0.37123316053E-01    3    1    3    1
    0.37632256913E-03    3    2    1    1
   -0.54085425298E-04    3    2    2    1
    0.42110958438E-03    3    2    2    2
   -0.29992725438E-04    3    2    3    1
    0.37050812299E-01    3    2    3    2
    0.65783795846        3    3    1    1
   -0.40847704144E-03    3    3    2    1
    0.65697396026        3    3    2    2
   -0.84518689741E-03    3    3    3    1
    0.44026133903E-03    3    3    3    2
    0.73176258884        3    3    3    3
    0.18509205726E-02    4    1    1    1
    0.57696007390E-04    4    1    2    1
    0.15437589616E-02    4    1    2    2
    0.84281166645E-04    4    1    3    1
    0.56334575122E-05    4    1    3    2
    0.14157988441E-02    4    1    3    3
    0.53104348353E-04    4    1    4    1
    0.59171982011E-03    4    2    1    1
    0.15401273042E-03    4    2    2    1
    0.71275651861E-03    4    2    2    2
    0.55985357450E-05    4    2    3    1
    0.22191281186E-04    4    2    3    2
    0.54020548390E-03    4    2    3    3
    0.93980837741E-05    4    2    4    1
    0.99282925283E-05    4    2    4    2
    0.31552184941E-03    4    3    1    1
    0.51038102049E-05    4    3    2    1
    0.25554872372E-03    4    3    2    2
    0.46573145142E-04    4    3    3    1
    0.15043082885E-04    4    3    3    2
    0.24851229926E-03    4    3    3    3
   -0.66909247314E-04    4    3    4    1
    0.12042738432E-04    4    3    4    2
    0.30005255154E-03    4    3    4    3
    0.18695433244        4    4    1    1
   -0.17091317865E-04    4    4    2    1
    0.18606769081        4    4    2    2
   -0.23796577108E-02    4    4    3    1
    0.51488122998E-03    4    4    3    2
    0.19471077391        4    4    3    3
    0.18556991918E-02    4    4    4    1
    0.71131460584E-03    4    4    4    2
    0.23894088424E-03    4    4    4    3
    0.73023075552        4    4    4    4
   -0.81174099926E-03    5    1    1    1
    0.15338386972E-03    5    1    2    1
   -0.68271502413E-03    5    1    2    2
    0.56751096638E-04    5    1    3    1
    0.31206963793E-04    5    1    3    2
   -0.61066426131E-03    5    1    3    3
   -0.13495188854E-04    5    1    4    1
   -0.18193058171E-06    5    1    4    2
   -0.22217409208E-05    5    1    4    3
   -0.69033315771E-03    5    1    4    4
    0.36798543335E-04    5    1    5    1
    0.15610443964E-02    5    2    1    1
   -0.73367679605E-04    5    2    2    1
    0.18875312458E-02    5    2    2    2
    0.34290188121E-04    5    2    3    1
    0.76353839904E-04    5    2    3    2
    0.14219902698E-02    5    2    3    3
    0.26149515386E-04    5    2    4    1
    0.10909032365E-04    5    2    4    2
    0.35851723109E-05    5    2    4    3
    0.15764405409E-02    5    2    4    4
   -0.15093532348E-04    5    2    5    1
    0.46908445036E-04    5    2    5    2
    0.81160229675E-03    5    3    1    1
    0.30282877606E-04    5    3    2    1
    0.82713184270E-03    5    3    2    2
   -0.96541414022E-05    5    3    3    1
    0.37059059790E-04    5    3    3    2
    0.91701384640E-03    5    3    3    3
    0.12790758984E-04    5    3    4    1
    0.58731669056E-05    5    3    4    2
    0.47081879807E-06    5    3    4    3
    0.93853992257E-03    5    3    4    4
   -0.76301121657E-04    5    3    5    1
    0.23107379610E-04    5    3    5    2
    0.31447087096E-03    5    3    5    3
   -0.22169333474E-03    5    4    1    1
    0.13018384300E-03    5    4    2    1
    0.37917266080E-04    5    4    2    2
    0.83327226869E-04    5    4    3    1
    0.46291281237E-04    5    4    3    2
   -0.33334658169E-04    5    4    3    3
   -0.75140059564E-04    5    4    4    1
    0.15697304671E-03    5    4    4    2
    0.97165402686E-04    5    4    4    3
   -0.45700658443E-03    5    4    4    4
    0.15409686739E-03    5    4    5    1
    0.56438348715E-04    5    4    5    2
    0.15359948494E-04    5    4    5    3
    0.37053265798E-01    5    4    5    4
    0.18707496543        5    5    1    1
   -0.27739048318E-03    5    5    2    1
    0.18671352587        5    5    2    2
   -0.24808703902E-02    5    5    3    1
    0.68813352011E-03    5    5    3    2
    0.19510682580        5    5    3    3
    0.15365598338E-02    5    5    4    1
    0.58894501125E-03    5    5    4    2
    0.20433997974E-03    5    5    4    3
    0.65701796332        5    5    4    4
   -0.82438019200E-03    5    5    5    1
    0.18992343493E-02    5    5    5    2
    0.11334281378E-02    5    5    5    3
   -0.47772611042E-03    5    5    5    4
    0.73181042351        5    5    5    5
   -0.16290930976E-02    6    1    1    1
    0.40614792705E-06    6    1    2    1
   -0.13557646197E-02    6    1    2    2
    0.54569648727E-03    6    1    3    1
   -0.23392764049E-05    6    1    3    2
   -0.11975649225E-02    6    1    3    3
   -0.25082502440E-04    6    1    4    1
   -0.81124076302E-05    6    1    4    2
   -0.61376504131E-05    6    1    4    3
   -0.12448842501E-02    6    1    4    4
    0.61668362592E-04    6    1    5    1
   -0.19242078018E-04    6    1    5    2
   -0.53480387733E-05    6    1    5    3
   -0.21678958764E-04    6    1    5    4
   -0.12319765979E-02    6    1    5    5
    0.33581076632E-03    6    1    6    1
   -0.43933973953E-04    6    2    1    1
   -0.13863929898E-03    6    2    2    1
   -0.47061897704E-04    6    2    2    2
   -0.83922917702E-06    6    2    3    1
    0.57829366736E-03    6    2    3    2
   -0.57635441012E-04    6    2    3    3
   -0.10522925027E-05    6    2    4    1
   -0.71357710928E-05    6    2    4    2
   -0.56785903508E-06    6    2    4    3
   -0.90383060133E-04    6    2    4    4
    0.12483992507E-05    6    2    5    1
    0.52639930260E-04    6    2    5    2
   -0.39394540068E-05    6    2    5    3
   -0.42564413848E-05    6    2    5    4
   -0.13528008056E-03    6    2    5    5
   -0.14583652846E-05    6    2    6    1
    0.30734006753E-03    6    2    6    2
    0.59278480785E-02    6    3    1    1
   -0.78899798497E-05    6    3    2    1
    0.59472442973E-02    6    3    2    2
    0.48602752023E-05    6    3    3    1
   -0.75057928354E-05    6    3    3    2
    0.65017287414E-02    6    3    3    3
    0.84988340364E-04    6    3    4    1
    0.33183767853E-04    6    3    4    2
    0.76214539320E-05    6    3    4    3
    0.59559009232E-02    6    3    4    4
   -0.33501550440E-04    6    3    5    1
    0.86577776467E-04    6    3    5    2
    0.87272038755E-04    6    3    5    3
   -0.11717691773E-04    6    3    5    4
    0.59507968783E-02    6    3    5    5
   -0.12122486722E-03    6    3    6    1
    0.38013433236E-05    6    3    6    2
    0.83795465884E-03    6    3    6    3
   -0.66946103596E-03    6    4    1    1
   -0.44713259745E-04    6    4    2    1
   -0.40853298675E-03    6    4    2    2
    0.52176272220E-03    6    4    3    1
    0.19610783936E-03    6    4    3    2
   -0.23249357626E-03    6    4    3    3
   -0.12103900077E-03    6    4    4    1
   -0.75353908463E-05    6    4    4    2
    0.58005017930E-03    6    4    4    3
   -0.46986916757E-03    6    4    4    4
   -0.22908002716E-04    6    4    5    1
   -0.51336172313E-05    6    4    5    2
   -0.59227540860E-05    6    4    5    3
    0.53597318166E-04    6    4    5    4
   -0.42200926042E-03    6    4    5    5
    0.33046167128E-04    6    4    6    1
    0.14869238771E-04    6    4    6    2
    0.78183927917E-05    6    4    6    3
    0.37059215671E-01    6    4    6    4
    0.20075292577E-02    6    5    1    1
   -0.13136180711E-03    6    5    2    1
    0.19036916890E-02    6    5    2    2
   -0.24806904596E-03    6    5    3    1
    0.54140883113E-03    6    5    3    2
    0.21834695380E-02    6    5    3    3
   -0.24969075215E-04    6    5    4    1
   -0.41775265951E-05    6    5    4    2
   -0.45732698658E-05    6    5    4    3
    0.73495412700E-03    6    5    4    4
   -0.10372588112E-03    6    5    5    1
   -0.53292349535E-04    6    5    5    2
    0.56409747693E-03    6    5    5    3
   -0.31127569490E-04    6    5    5    4
    0.83845935397E-03    6    5    5    5
   -0.62869806308E-05    6    5    6    1
    0.39356678720E-04    6    5    6    2
   -0.57626325101E-05    6    5    6    3
   -0.30128707937E-04    6    5    6    4
    0.37122012697E-01    6    5    6    5
    0.19570003577        6    6    1    1
   -0.95207525341E-04    6    6    2    1
    0.19499158499        6    6    2    2
   -0.28540232535E-02    6    6    3    1
    0.41319941365E-03    6    6    3    2
    0.20572308066        6    6    3    3
    0.13918260449E-02    6    6    4    1
    0.53852389991E-03    6    6    4    2
    0.20293259656E-03    6    6    4    3
    0.65710281636        6    6    4    4
   -0.61226209020E-03    6    6    5    1
    0.14379166519E-02    6    6    5    2
    0.82134424410E-03    6    6    5    3
   -0.40893121523E-03    6    6    5    4
    0.65781408003        6    6    5    5
   -0.13583425756E-02    6    6    6    1
   -0.75896523308E-04    6    6    6    2
    0.64940245466E-02    6    6    6    3
   -0.49486647226E-03    6    6    6    4
    0.84253149275E-03    6    6    6    5
    0.73200468893        6    6    6    6
   -0.20385985005E-02    7    1    1    1
    0.30522478326E-04    7    1    2    1
   -0.18847418630E-02    7    1    2    2
    0.69665484698E-05    7    1    3    1
    0.14224572523E-04    7    1    3    2
   -0.18642149100E-02    7    1    3    3
   -0.12582676417E-04    7    1    4    1
   -0.48149793949E-05    7    1    4    2
   -0.53480664111E-06    7    1    4    3
    0.15792507050E-03    7    1    4    4
    0.18522828026E-04    7    1    5    1
   -0.12170339894E-04    7    1    5    2
   -0.11190690375E-04    7    1    5    3
    0.18466266386E-04    7    1    5    4
    0.18693220495E-03    7    1    5    5
    0.76378688168E-04    7    1    6    1
    0.11681383613E-04    7    1    6    2
   -0.45256653453E-04    7    1    6    3
   -0.21752738378E-04    7    1    6    4
    0.29274520971E-04    7    1    6    5
    0.20969999848E-03    7    1    6    6
    0.36230077477E-03    7    1    7    1
    0.12496228780E-02    7    2    1    1
   -0.19196786654E-03    7    2    2    1
    0.16697784123E-02    7    2    2    2
    0.17602494403E-04    7    2    3    1
    0.92416279926E-04    7    2    3    2
    0.13832234320E-02    7    2    3    3
    0.64880207353E-05    7    2    4    1
   -0.22566465709E-06    7    2    4    2
   -0.40952974950E-05    7    2    4    3
   -0.12339462239E-03    7    2    4    4
   -0.27149751208E-05    7    2    5    1
    0.29939049927E-04    7    2    5    2
    0.14601387328E-05    7    2    5    3
    0.87896627545E-05    7    2    5    4
   -0.16190134524E-03    7    2    5    5
    0.60704292408E-05    7    2    6    1
    0.93070879691E-04    7    2    6    2
    0.33587663924E-04    7    2    6    3
    0.20477377662E-04    7    2    6    4
   -0.23001991417E-05    7    2    6    5
   -0.13716820579E-03    7    2    6    6
   -0.21503667575E-04    7    2    7    1
    0.63963646372E-04    7    2    7    2
    0.75240499806E-03    7    3    1    1
    0.15541007087E-04    7    3    2    1
    0.84992550391E-03    7    3    2    2
   -0.16541735543E-03    7    3    3    1
    0.14090700470E-03    7    3    3    2
    0.10176208926E-02    7    3    3    3
   -0.70402022931E-06    7    3    4    1
   -0.99929065985E-06    7    3    4    2
   -0.62285562756E-05    7    3    4    3
   -0.44967382969E-03    7    3    4    4
   -0.35476103584E-06    7    3    5    1
    0.28896155536E-06    7    3    5    2
    0.16465271183E-04    7    3    5    3
    0.74617244028E-05    7    3    5    4
   -0.46831265666E-03    7    3    5    5
    0.13259792181E-05    7    3    6    1
    0.37060544551E-05    7    3    6    2
    0.80034098923E-04    7    3    6    3
    0.42093611920E-04    7    3    6    4
   -0.24601479241E-04    7    3    6    5
   -0.43137796091E-03    7    3    6    6
   -0.59531741494E-04    7    3    7    1
    0.13102881146E-04    7    3    7    2
    0.53080533664E-04    7    3    7    3
   -0.94957356260E-04    7    4    1    1
   -0.12627884484E-04    7    4    2    1
   -0.10930144173E-03    7    4    2    2
    0.24100356392E-04    7    4    3    1
   -0.17003126875E-04    7    4    3    2
   -0.12900489238E-03    7    4    3    3
    0.35053137174E-04    7    4    4    1
    0.28968618136E-05    7    4    4    2
   -0.86803210481E-04    7    4    4    3
    0.21988453209E-02    7    4    4    4
   -0.13767972290E-05    7    4    5    1
    0.14003907244E-04    7    4    5    2
   -0.91967275988E-05    7    4    5    3
   -0.76050881621E-04    7    4    5    4
    0.18615536270E-02    7    4    5    5
   -0.11415128567E-04    7    4    6    1
    0.43718419404E-05    7    4    6    2
    0.50558980716E-04    7    4    6    3
   -0.31633239038E-04    7    4    6    4
   -0.54431433571E-04    7    4    6    5
    0.19121904924E-02    7    4    6    6
   -0.20053234967E-03    7    4    7    1
    0.51743958145E-05    7    4    7    2
    0.38681669085E-04    7    4    7    3
    0.25167913695E-03    7    4    7    4
    0.21521584448E-03    7    5    1    1
   -0.11726442233E-04    7    5    2    1
    0.23208542955E-03    7    5    2    2
   -0.35091446111E-04    7    5    3    1
    0.51169645088E-06    7    5    3    2
    0.21022887245E-03    7    5    3    3
   -0.50897387700E-05    7    5    4    1
   -0.31230584543E-05    7    5    4    2
   -0.18698635742E-04    7    5    4    3
   -0.18841731228E-02    7    5    4    4
    0.34232508323E-04    7    5    5    1
   -0.20036071957E-04    7    5    5    2
   -0.11168428651E-03    7    5    5    3
    0.10829675292E-03    7    5    5    4
   -0.24109466207E-02    7    5    5    5
    0.12614566963E-04    7    5    6    1
    0.53997857870E-05    7    5    6    2
   -0.41146624325E-04    7    5    6    3
   -0.62754913901E-04    7    5    6    4
   -0.63361651942E-04    7    5    6    5
   -0.20064499073E-02    7    5    6    6
    0.78305863161E-04    7    5    7    1
   -0.13775691688E-04    7    5    7    2
   -0.18630971101E-04    7    5    7    3
   -0.95462353684E-04    7    5    7    4
    0.12212841409E-03    7    5    7    5
    0.38472687464E-03    7    6    1    1
   -0.11248993030E-05    7    6    2    1
    0.36822779100E-03    7    6    2    2
   -0.40040547790E-04    7    6    3    1
    0.16298789537E-04    7    6    3    2
    0.32969813321E-03    7    6    3    3
    0.12895337200E-05    7    6    4    1
    0.58421751053E-06    7    6    4    2
    0.10657400805E-05    7    6    4    3
   -0.84554987230E-03    7    6    4    4
    0.34993945925E-06    7    6    5    1
    0.86252498131E-06    7    6    5    2
    0.10279382068E-05    7    6    5    3
   -0.59320099742E-04    7    6    5    4
   -0.88270364120E-03    7    6    5    5
    0.28834940844E-04    7    6    6    1
   -0.49498890326E-05    7    6    6    2
   -0.95944509646E-04    7    6    6    3
    0.16112343642E-03    7    6    6    4
   -0.18101522184E-03    7    6    6    5
   -0.10872286863E-02    7    6    6    6
    0.87904088807E-04    7    6    7    1
   -0.36598352575E-05    7    6    7    2
   -0.17725736942E-04    7    6    7    3
   -0.80391337759E-04    7    6    7    4
    0.41293641092E-04    7    6    7    5
    0.89612909771E-04    7    6    7    6
    0.19604619367        7    7    1    1
   -0.46325278468E-03    7    7    2    1
    0.18705904891        7    7    2    2
   -0.18709163706E-02    7    7    3    1
    0.17230450279E-03    7    7    3    2
    0.18719331545        7    7    3    3
   -0.94004123408E-03    7    7    4    1
   -0.69725569085E-04    7    7    4    2
    0.96188293050E-04    7    7    4    3
    0.18832873180        7    7    4    4
    0.33387765575E-03    7    7    5    1
   -0.16428173237E-03    7    7    5    2
   -0.65565867039E-04    7    7    5    3
   -0.29737217291E-02    7    7    5    4
    0.18376602250        7    7    5    5
    0.29798670832E-03    7    7    6    1
    0.33107333288E-04    7    7    6    2
   -0.38309287856E-03    7    7    6    3
   -0.28682025986E-02    7    7    6    4
    0.13792402729E-02    7    7    6    5
    0.18344272986        7    7    6    6
   -0.23727288474E-02    7    7    7    1
    0.16342312841E-02    7    7    7    2
    0.97263141610E-03    7    7    7    3
    0.24022311681E-02    7    7    7    4
   -0.23447620016E-02    7    7    7    5
   -0.10589694365E-02    7    7    7    6
    0.73261036611        7    7    7    7
    0.97376443248E-05    8    1    1    1
   -0.17899460116E-04    8    1    2    1
    0.31535161943E-04    8    1    2    2
    0.36347130078E-04    8    1    3    1
   -0.88034901455E-05    8    1    3    2
    0.65258192538E-04    8    1    3    3
   -0.29291090971E-05    8    1    4    1
   -0.13215280481E-05    8    1    4    2
    0.29339045908E-05    8    1    4    3
    0.12064979308E-03    8    1    4    4
    0.38537160618E-05    8    1    5    1
   -0.47266243388E-05    8    1    5    2
    0.95228997028E-06    8    1    5    3
    0.13433656667E-04    8    1    5    4
    0.17906977060E-03    8    1    5    5
    0.21965230044E-04    8    1    6    1
   -0.55358788554E-05    8    1    6    2
   -0.10866014166E-05    8    1    6    3
   -0.20920716913E-04    8    1    6    4
    0.60994012926E-05    8    1    6    5
    0.23761657356E-03    8    1    6    6
    0.29553918711E-05    8    1    7    1
    0.17873618906E-06    8    1    7    2
    0.10247587383E-05    8    1    7    3
    0.19533495162E-04    8    1    7    4
   -0.15468028111E-04    8    1    7    5
   -0.57617265956E-05    8    1    7    6
   -0.67731137878E-05    8    1    7    7
    0.30324680953E-03    8    1    8    1
   -0.64574162526E-03    8    2    1    1
    0.54439434886E-05    8    2    2    1
   -0.85289546320E-03    8    2    2    2
   -0.85479771605E-05    8    2    3    1
    0.15087129886E-03    8    2    3    2
   -0.70534937086E-03    8    2    3    3
   -0.41765169982E-05    8    2    4    1
   -0.35503770761E-05    8    2    4    2
    0.12766667868E-05    8    2    4    3
    0.62528291261E-04    8    2    4    4
   -0.20014492863E-06    8    2    5    1
   -0.35522504394E-05    8    2    5    2
   -0.31646676822E-05    8    2    5    3
    0.12717176802E-04    8    2    5    4
    0.53033099195E-04    8    2    5    5
   -0.25944300432E-05    8    2    6    1
    0.16799203878E-04    8    2    6    2
   -0.18776960084E-04    8    2    6    3
   -0.14433886351E-04    8    2    6    4
   -0.54710743254E-05    8    2    6    5
    0.61481447958E-04    8    2    6    6
    0.13841306147E-04    8    2    7    1
   -0.89564259029E-05    8    2    7    2
   -0.25874273102E-05    8    2    7    3
   -0.67573183113E-06    8    2    7    4
    0.49053228149E-05    8    2    7    5
    0.62652329045E-06    8    2    7    6
   -0.71178734854E-03    8    2    7    7
    0.31749241651E-05    8    2    8    1
    0.11792910907E-04    8    2    8    2
    0.13901376466E-02    8    3    1    1
   -0.10306578774E-04    8    3    2    1
    0.15245674360E-02    8    3    2    2
    0.39027869457E-04    8    3    3    1
   -0.67117531750E-04    8    3    3    2
    0.18409433154E-02    8    3    3    3
    0.55123324452E-05    8    3    4    1
    0.31707395586E-05    8    3    4    2
   -0.19642113164E-05    8    3    4    3
   -0.85855684315E-03    8    3    4    4
   -0.75931887672E-07    8    3    5    1
    0.71215041456E-05    8    3    5    2
    0.63515248189E-05    8    3    5    3
   -0.17001879686E-05    8    3    5    4
   -0.88619719297E-03    8    3    5    5
    0.51918726282E-05    8    3    6    1
   -0.30942829986E-05    8    3    6    2
    0.41286711266E-04    8    3    6    3
    0.59678106886E-04    8    3    6    4
   -0.10229652148E-04    8    3    6    5
   -0.89681555070E-03    8    3    6    6
   -0.27582583484E-04    8    3    7    1
    0.22436200162E-04    8    3    7    2
    0.18861661170E-04    8    3    7    3
    0.38586967965E-05    8    3    7    4
   -0.63646542630E-05    8    3    7    5
   -0.23153002937E-05    8    3    7    6
    0.14983601003E-02    8    3    7    7
   -0.45426590283E-04    8    3    8    1
   -0.14436398981E-04    8    3    8    2
    0.42048067056E-04    8    3    8    3
   -0.32857226311E-03    8    4    1    1
    0.18997096710E-06    8    4    2    1
   -0.32278722572E-03    8    4    2    2
    0.35788985237E-04    8    4    3    1
    0.54301881867E-05    8    4    3    2
   -0.32358555957E-03    8    4    3    3
    0.60609135034E-04    8    4    4    1
    0.93095692863E-05    8    4    4    2
   -0.13178945677E-03    8    4    4    3
    0.48601367738E-02    8    4    4    4
   -0.71084080739E-05    8    4    5    1
    0.29678243719E-04    8    4    5    2
    0.31918832859E-05    8    4    5    3
    0.96115544725E-05    8    4    5    4
    0.43591018461E-02    8    4    5    5
   -0.22980345448E-04    8    4    6    1
   -0.75914909822E-06    8    4    6    2
    0.10414833687E-03    8    4    6    3
   -0.51784097749E-06    8    4    6    4
   -0.27009824228E-04    8    4    6    5
    0.43419292883E-02    8    4    6    6
   -0.12986158098E-04    8    4    7    1
    0.26409619963E-04    8    4    7    2
    0.87844534636E-05    8    4    7    3
    0.15374761300E-03    8    4    7    4
   -0.76047880283E-04    8    4    7    5
   -0.29904568666E-04    8    4    7    6
    0.42892061062E-02    8    4    7    7
   -0.14883438180E-03    8    4    8    1
   -0.18586283854E-04    8    4    8    2
    0.50757220985E-04    8    4    8    3
    0.47250583056E-03    8    4    8    4
    0.47223948228E-04    8    5    1    1
   -0.16455732514E-04    8    5    2    1
    0.25170140275E-04    8    5    2    2
   -0.56316249998E-05    8    5    3    1
   -0.14693294875E-04    8    5    3    2
    0.25582583770E-04    8    5    3    3
   -0.47450729552E-06    8    5    4    1
    0.25214752199E-05    8    5    4    2
   -0.12447903645E-04    8    5    4    3
   -0.87542251510E-03    8    5    4    4
    0.51353807421E-04    8    5    5    1
   -0.98994227310E-05    8    5    5    2
   -0.18771178353E-03    8    5    5    3
    0.40447012792E-03    8    5    5    4
   -0.11868233303E-02    8    5    5    5
    0.23009843389E-05    8    5    6    1
    0.94185773150E-05    8    5    6    2
   -0.13609625451E-04    8    5    6    3
   -0.33462498881E-04    8    5    6    4
   -0.13171924634E-03    8    5    6    5
   -0.98105711386E-03    8    5    6    6
   -0.69851293152E-05    8    5    7    1
   -0.64000528435E-05    8    5    7    2
   -0.56972417118E-06    8    5    7    3
   -0.11354917204E-04    8    5    7    4
    0.10393335766E-03    8    5    7    5
    0.48539003776E-05    8    5    7    6
   -0.80134944963E-03    8    5    7    7
    0.64573286131E-04    8    5    8    1
    0.36551031275E-05    8    5    8    2
   -0.16670628979E-04    8    5    8    3
   -0.90638318958E-04    8    5    8    4
    0.18440957383E-03    8    5    8    5
    0.16329579990E-03    8    6    1    1
    0.37072052915E-05    8    6    2    1
    0.11516170358E-03    8    6    2    2
   -0.34031949499E-04    8    6    3    1
   -0.14817154080E-04    8    6    3    2
    0.53576408158E-04    8    6    3    3
    0.10730007705E-05    8    6    4    1
   -0.76372068609E-06    8    6    4    2
    0.35582762682E-05    8    6    4    3
   -0.12017367819E-02    8    6    4    4
   -0.13360164323E-05    8    6    5    1
    0.17120766555E-05    8    6    5    2
    0.46257409997E-05    8    6    5    3
   -0.34041462809E-04    8    6    5    4
   -0.13375796493E-02    8    6    5    5
    0.49866510173E-04    8    6    6    1
   -0.48020675999E-05    8    6    6    2
   -0.16484421745E-03    8    6    6    3
    0.38590584197E-03    8    6    6    4
   -0.94083495062E-04    8    6    6    5
   -0.16050198676E-02    8    6    6    6
    0.75369369131E-05    8    6    7    1
   -0.11193587992E-04    8    6    7    2
   -0.45041446894E-05    8    6    7    3
   -0.16946434521E-04    8    6    7    4
    0.21803094085E-04    8    6    7    5
    0.98179589569E-04    8    6    7    6
   -0.12233543743E-02    8    6    7    7
    0.72757583061E-04    8    6    8    1
    0.81795602933E-05    8    6    8    2
   -0.22166748597E-04    8    6    8    3
   -0.10929613202E-03    8    6    8    4
    0.33259457824E-04    8    6    8    5
    0.19477581335E-03    8    6    8    6
    0.15597432231E-03    8    7    1    1
    0.76188975992E-04    8    7    2    1
    0.64775059224E-04    8    7    2    2
   -0.18717013401E-03    8    7    3    1
    0.98671216383E-04    8    7    3    2
    0.36386596796E-03    8    7    3    3
   -0.29660558610E-05    8    7    4    1
    0.67156169224E-05    8    7    4    2
   -0.20772235738E-04    8    7    4    3
    0.40637953506E-02    8    7    4    4
    0.47684635412E-05    8    7    5    1
   -0.10411357314E-05    8    7    5    2
    0.17674118195E-04    8    7    5    3
   -0.47325163584E-03    8    7    5    4
    0.37319651081E-02    8    7    5    5
    0.34443925465E-04    8    7    6    1
   -0.17522088635E-04    8    7    6    2
   -0.72148639155E-05    8    7    6    3
   -0.18425899674E-03    8    7    6    4
    0.13720778515E-03    8    7    6    5
    0.36262195989E-02    8    7    6    6
   -0.46469722985E-05    8    7    7    1
   -0.69418104313E-04    8    7    7    2
    0.14093851119E-03    8    7    7    3
    0.33770087360E-03    8    7    7    4
    0.26234381890E-04    8    7    7    5
   -0.85141136537E-04    8    7    7    6
    0.45578414473E-03    8    7    7    7
   -0.20088403213E-03    8    7    8    1
    0.13812213162E-03    8    7    8    2
    0.86444655692E-04    8    7    8    3
    0.22408187578E-04    8    7    8    4
   -0.10834534392E-03    8    7    8    5
   -0.40257485514E-04    8    7    8    6
    0.37063302333E-01    8    7    8    7
    0.19463786616        8    8    1    1
   -0.10772790125E-03    8    8    2    1
    0.18567572541        8    8    2    2
   -0.16951122674E-02    8    8    3    1
   -0.12379604917E-03    8    8    3    2
    0.18621034311        8    8    3    3
   -0.90314974126E-03    8    8    4    1
   -0.92705171233E-04    8    8    4    2
    0.46348143695E-04    8    8    4    3
    0.19269767573        8    8    4    4
    0.30505254617E-03    8    8    5    1
   -0.13058516502E-03    8    8    5    2
   -0.53776179013E-04    8    8    5    3
   -0.27157512100E-02    8    8    5    4
    0.18630619832        8    8    5    5
    0.30625957909E-03    8    8    6    1
    0.63838376452E-04    8    8    6    2
   -0.35841788218E-03    8    8    6    3
   -0.30798876850E-02    8    8    6    4
    0.11486736959E-02    8    8    6    5
    0.18655616818        8    8    6    6
   -0.19885340205E-02    8    8    7    1
    0.13795237476E-02    8    8    7    2
    0.82497552805E-03    8    8    7    3
    0.18441764999E-02    8    8    7    4
   -0.19081928266E-02    8    8    7    5
   -0.84599740477E-03    8    8    7    6
    0.65727786290        8    8    7    7
   -0.13261727460E-04    8    8    8    1
   -0.85736182775E-03    8    8    8    2
    0.18189430017E-02    8    8    8    3
    0.48877813096E-02    8    8    8    4
   -0.10695480234E-02    8    8    8    5
   -0.14404697342E-02    8    8    8    6
    0.40923024724E-03    8    8    8    7
    0.73006933937        8    8    8    8
   -0.62890757052E-02    9    1    1    1
   -0.84535907646E-05    9    1    2    1
   -0.57687439442E-02    9    1    2    2
   -0.59083923213E-05    9    1    3    1
   -0.15674564122E-04    9    1    3    2
   -0.57727005153E-02    9    1    3    3
   -0.36186623548E-04    9    1    4    1
   -0.13964766554E-04    9    1    4    2
   -0.23205880404E-05    9    1    4    3
    0.35506503037E-03    9    1    4    4
    0.45134004655E-04    9    1    5    1
   -0.37116928300E-04    9    1    5    2
   -0.18813860123E-04    9    1    5    3
   -0.93006708618E-05    9    1    5    4
    0.36874942485E-03    9    1    5    5
    0.20647746514E-03    9    1    6    1
   -0.25701879325E-05    9    1    6    2
   -0.13418688532E-03    9    1    6    3
   -0.48683880294E-04    9    1    6    4
    0.87520954179E-05    9    1    6    5
    0.36926921485E-03    9    1    6    6
    0.16941579535E-03    9    1    7    1
   -0.74485097053E-04    9    1    7    2
   -0.39820059634E-04    9    1    7    3
   -0.29719191657E-04    9    1    7    4
    0.40861630827E-04    9    1    7    5
    0.11150869598E-04    9    1    7    6
   -0.56913446871E-02    9    1    7    7
    0.74412351554E-05    9    1    8    1
    0.38322893876E-04    9    1    8    2
   -0.80922759407E-04    9    1    8    3
   -0.10551441692E-03    9    1    8    4
    0.27011457247E-04    9    1    8    5
    0.35656122889E-04    9    1    8    6
   -0.38842025161E-05    9    1    8    7
   -0.57436283903E-02    9    1    8    8
    0.79752223340E-03    9    1    9    1
   -0.48735849997E-03    9    2    1    1
   -0.56111079803E-03    9    2    2    1
   -0.61902184837E-03    9    2    2    2
   -0.89766921447E-05    9    2    3    1
    0.69846731497E-04    9    2    3    2
   -0.52159272323E-03    9    2    3    3
   -0.47912492796E-05    9    2    4    1
   -0.13715545475E-04    9    2    4    2
   -0.39502066420E-05    9    2    4    3