 &FCI NORB= 14,NELEC= 10,MS2= 0,
    ORBSYM=1,1,1,1,1,1,1,1,1,1,1,1,1,1,
    ISYM=1,
 &End
   5.97225439526447                1           1           1           1
 -0.616111488497691                1           1           1           2
 -0.548421523238233                1           1           1           9
 -0.616111488497691                1           1           2           1
   1.45640667849705                1           1           2           2
  0.586702567011198                1           1           2           9
   1.41787750587342                1           1           3           3
 -0.526043771086410                1           1           3           6
 -0.130178456442724                1           1           3           7
 -0.366799982937666                1           1           3           8
   1.41787750587342                1           1           4           4
  0.236544666783672                1           1           4           6
 -0.596662167092449                1           1           4           7
 -0.127481708807335                1           1           4           8
   1.41787750587342                1           1           5           5
 -0.309087817005271                1           1           5           6
 -0.235071340112797                1           1           5           7
  0.526703800575032                1           1           5           8
 -0.526043771086410                1           1           6           3
  0.236544666783672                1           1           6           4
 -0.309087817005271                1           1           6           5
   1.18447598641267                1           1           6           6
 -0.130178456442724                1           1           7           3
 -0.596662167092449                1           1           7           4
 -0.235071340112797                1           1           7           5
   1.18447598641267                1           1           7           7
 -0.366799982937666                1           1           8           3
 -0.127481708807335                1           1           8           4
  0.526703800575032                1           1           8           5
   1.18447598641267                1           1           8           8
 -0.548421523238233                1           1           9           1
  0.586702567011198                1           1           9           2
   1.16851026653925                1           1           9           9
   1.26222470858977                1           1          10          10
   1.26222470858977                1           1          11          11
   1.26222470858977                1           1          12          12
   1.26222470858977                1           1          13          13
   1.26222470858977                1           1          14          14
 -0.616111488497691                1           2           1           1
  0.103195770891639                1           2           1           2
  9.265401774973885E-002           1           2           1           9
  0.103195770891639                1           2           2           1
 -2.878554755167177E-002           1           2           2           2
 -2.624129858128910E-002           1           2           2           9
 -1.993079888886812E-002           1           2           3           3
  1.733643897807327E-002           1           2           3           6
  4.290195969278652E-003           1           2           3           7
  1.208835817640090E-002           1           2           3           8
 -1.993079888886806E-002           1           2           4           4
 -7.795629197955436E-003           1           2           4           6
  1.966375769255909E-002           1           2           4           7
  4.201321234152275E-003           1           2           4           8
 -1.993079888886806E-002           1           2           5           5
  1.018638062629499E-002           1           2           5           6
  7.747073850799356E-003           1           2           5           7
 -1.735819108613375E-002           1           2           5           8
  1.733643897807327E-002           1           2           6           3
 -7.795629197955436E-003           1           2           6           4
  1.018638062629499E-002           1           2           6           5
 -2.360238406319167E-002           1           2           6           6
  4.290195969278652E-003           1           2           7           3
  1.966375769255909E-002           1           2           7           4
  7.747073850799356E-003           1           2           7           5
 -2.360238406319169E-002           1           2           7           7
  1.208835817640090E-002           1           2           8           3
  4.201321234152275E-003           1           2           8           4
 -1.735819108613375E-002           1           2           8           5
 -2.360238406319167E-002           1           2           8           8
  9.265401774973885E-002           1           2           9           1
 -2.624129858128910E-002           1           2           9           2
 -2.430105826798437E-002           1           2           9           9
 -3.721357693292369E-003           1           2          10          10
 -3.721357693292412E-003           1           2          11          11
 -3.721357693292353E-003           1           2          12          12
 -3.721357693292389E-003           1           2          13          13
 -3.721357693292400E-003           1           2          14          14
  4.805613109359283E-002           1           3           1           3
 -4.230653862117054E-002           1           3           1           6
 -1.046947078902644E-002           1           3           1           7
 -2.949951790579803E-002           1           3           1           8
  4.896293788116327E-002           1           3           2           3
 -2.225106338652747E-002           1           3           2           6
 -5.506403164674207E-003           1           3           2           7
 -1.551522918647494E-002           1           3           2           8
  4.805613109359283E-002           1           3           3           1
  4.896293788116327E-002           1           3           3           2
  2.670568853510025E-002           1           3           3           9
 -1.535032748015714E-002           1           3           3          10
  2.343329490149695E-002           1           3           3          11
 -5.172997991447062E-005           1           3           3          12
 -2.438703697642688E-002           1           3           3          13
 -1.973950105977787E-002           1           3           3          14
  1.305848964006644E-002           1           3           4          10
  1.723037119733856E-002           1           3           4          11
  2.317889212810437E-002           1           3           4          12
  1.554765639920610E-002           1           3           4          13
 -8.969225586505456E-003           1           3           4          14
  2.049913684699765E-002           1           3           5          10
  1.471609346128282E-002           1           3           5          11
 -2.589163002059268E-002           1           3           5          12
  3.500318362808880E-003           1           3           5          13
 -2.727775411589519E-003           1           3           5          14
 -4.230653862117054E-002           1           3           6           1
 -2.225106338652747E-002           1           3           6           2
 -2.780375709728110E-002           1           3           6           9
  4.198762343147264E-003           1           3           6          10
 -1.113194767240468E-002           1           3           6          11
  1.175212341861539E-002           1           3           6          12
  1.341465587306866E-002           1           3           6          13
  7.918917913121560E-003           1           3           6          14
 -1.046947078902644E-002           1           3           7           1
 -5.506403164674207E-003           1           3           7           2
 -6.880511434927612E-003           1           3           7           9
 -9.229245864458595E-003           1           3           7          10
 -1.460274843868526E-002           1           3           7          11
 -6.728743909311085E-003           1           3           7          12
 -6.022549314598155E-003           1           3           7          13
  7.446788874222909E-003           1           3           7          14
 -2.949951790579803E-002           1           3           8           1
 -1.551522918647494E-002           1           3           8           2
 -1.938701338069925E-002           1           3           8           9
  1.283917191529737E-002           1           3           8          10
 -2.644642889452758E-003           1           3           8          11
 -1.441365608562269E-002           1           3           8          12
  7.659236434303499E-003           1           3           8          13
  6.041921994680241E-003           1           3           8          14
  2.670568853510025E-002           1           3           9           3
 -2.780375709728110E-002           1           3           9           6
 -6.880511434927612E-003           1           3           9           7
 -1.938701338069925E-002           1           3           9           8
 -1.535032748015714E-002           1           3          10           3
  1.305848964006644E-002           1           3          10           4
  2.049913684699765E-002           1           3          10           5
  4.198762343147264E-003           1           3          10           6
 -9.229245864458595E-003           1           3          10           7
  1.283917191529737E-002           1           3          10           8
  2.343329490149695E-002           1           3          11           3
  1.723037119733856E-002           1           3          11           4
  1.471609346128282E-002           1           3          11           5
 -1.113194767240468E-002           1           3          11           6
 -1.460274843868526E-002           1           3          11           7
 -2.644642889452758E-003           1           3          11           8
 -5.172997991447062E-005           1           3          12           3
  2.317889212810437E-002           1           3          12           4
 -2.589163002059268E-002           1           3          12           5
  1.175212341861539E-002           1           3          12           6
 -6.728743909311085E-003           1           3          12           7
 -1.441365608562269E-002           1           3          12           8
 -2.438703697642688E-002           1           3          13           3
  1.554765639920610E-002           1           3          13           4
  3.500318362808880E-003           1           3          13           5
  1.341465587306866E-002           1           3          13           6
 -6.022549314598155E-003           1           3          13           7
  7.659236434303499E-003           1           3          13           8
 -1.973950105977787E-002           1           3          14           3
 -8.969225586505456E-003           1           3          14           4
 -2.727775411589519E-003           1           3          14           5
  7.918917913121560E-003           1           3          14           6
  7.446788874222909E-003           1           3          14           7
  6.041921994680241E-003           1           3          14           8
  4.805613109359267E-002           1           4           1           4
  1.902386575217421E-002           1           4           1           6
 -4.798595174647832E-002           1           4           1           7
 -1.025258758603269E-002           1           4           1           8
  4.896293788116314E-002           1           4           2           4
  1.000557494194513E-002           1           4           2           6
 -2.523814258440499E-002           1           4           2           7
 -5.392333754730273E-003           1           4           2           8
  1.305848964006644E-002           1           4           3          10
  1.723037119733856E-002           1           4           3          11
  2.317889212810437E-002           1           4           3          12
  1.554765639920610E-002           1           4           3          13
 -8.969225586505458E-003           1           4           3          14
  4.805613109359267E-002           1           4           4           1
  4.896293788116314E-002           1           4           4           2
  2.670568853510019E-002           1           4           4           9
  1.859287694788424E-002           1           4           4          10
 -1.791927106595554E-003           1           4           4          11
  9.049507142233021E-003           1           4           4          12
 -6.336190799823177E-003           1           4           4          13
  3.603030731112876E-002           1           4           4          14
 -2.098065467383910E-002           1           4           5          10
  1.740858569698220E-002           1           4           5          11
 -6.146693468727192E-003           1           4           5          12
  1.683656309578484E-002           1           4           5          13
  1.619719379104270E-002           1           4           5          14
  1.902386575217421E-002           1           4           6           1
  1.000557494194513E-002           1           4           6           2
  1.250243956758149E-002           1           4           6           9
  3.490606032471103E-003           1           4           6          10
 -1.293121005527299E-002           1           4           6          11
 -7.090345629654685E-003           1           4           6          12
 -1.294245918143033E-002           1           4           6          13
  7.161657496868441E-003           1           4           6          14
 -4.798595174647832E-002           1           4           7           1
 -2.523814258440499E-002           1           4           7           2
 -3.153625396744929E-002           1           4           7           9
 -6.837278986590128E-003           1           4           7          10
 -4.579935288354843E-003           1           4           7          11
 -6.063532560512439E-003           1           4           7          12
 -1.914382560524856E-003           1           4           7          13
 -2.099266672373983E-002           1           4           7          14
 -1.025258758603269E-002           1           4           8           1
 -5.392333754730273E-003           1           4           8           2
 -6.737976307000589E-003           1           4           8           9
 -1.583784762331884E-002           1           4           8          10
  2.676508133743747E-003           1           4           8          11
 -1.121317687412406E-002           1           4           8          12
  3.455101909695013E-003           1           4           8          13
  6.286045992299105E-003           1           4           8          14
  2.670568853510019E-002           1           4           9           4
  1.250243956758149E-002           1           4           9           6
 -3.153625396744929E-002           1           4           9           7
 -6.737976307000589E-003           1           4           9           8
  1.305848964006644E-002           1           4          10           3
  1.859287694788424E-002           1           4          10           4
 -2.098065467383910E-002           1           4          10           5
  3.490606032471103E-003           1           4          10           6
 -6.837278986590128E-003           1           4          10           7
 -1.583784762331884E-002           1           4          10           8
  1.723037119733856E-002           1           4          11           3
 -1.791927106595554E-003           1           4          11           4
  1.740858569698220E-002           1           4          11           5
 -1.293121005527299E-002           1           4          11           6
 -4.579935288354843E-003           1           4          11           7
  2.676508133743747E-003           1           4          11           8
  2.317889212810437E-002           1           4          12           3
  9.049507142233021E-003           1           4          12           4
 -6.146693468727192E-003           1           4          12           5
 -7.090345629654685E-003           1           4          12           6
 -6.063532560512439E-003           1           4          12           7
 -1.121317687412406E-002           1           4          12           8
  1.554765639920610E-002           1           4          13           3
 -6.336190799823177E-003           1           4          13           4
  1.683656309578484E-002           1           4          13           5
 -1.294245918143033E-002           1           4          13           6
 -1.914382560524856E-003           1           4          13           7
  3.455101909695013E-003           1           4          13           8
 -8.969225586505458E-003           1           4          14           3
  3.603030731112876E-002           1           4          14           4
  1.619719379104270E-002           1           4          14           5
  7.161657496868441E-003           1           4          14           6
 -2.099266672373983E-002           1           4          14           7
  6.286045992299105E-003           1           4          14           8
  4.805613109359266E-002           1           5           1           5
 -2.485807528993401E-002           1           5           1           6
 -1.890537494374919E-002           1           5           1           7
  4.235962082570610E-002           1           5           1           8
  4.896293788116313E-002           1           5           2           5
 -1.307406909121630E-002           1           5           2           6
 -9.943254870984120E-003           1           5           2           7
  2.227898189596628E-002           1           5           2           8
  2.049913684699764E-002           1           5           3          10
  1.471609346128281E-002           1           5           3          11
 -2.589163002059268E-002           1           5           3          12
  3.500318362808874E-003           1           5           3          13
 -2.727775411589519E-003           1           5           3          14
 -2.098065467383909E-002           1           5           4          10
  1.740858569698220E-002           1           5           4          11
 -6.146693468727195E-003           1           5           4          12
  1.683656309578484E-002           1           5           4          13
  1.619719379104270E-002           1           5           4          14
  4.805613109359266E-002           1           5           5           1
  4.896293788116313E-002           1           5           5           2
  2.670568853510016E-002           1           5           5           9
 -3.242549467727140E-003           1           5           5          10
 -2.164136779490134E-002           1           5           5          11
 -8.997777162318569E-003           1           5           5          12
  3.072322777624997E-002           1           5           5          13
 -1.629080625135098E-002           1           5           5          14
 -2.485807528993401E-002           1           5           6           1
 -1.307406909121630E-002           1           5           6           2
 -1.633666827381136E-002           1           5           6           9
 -1.282292427308313E-002           1           5           6          10
  2.666224461751775E-003           1           5           6          11
  1.299964194052194E-002           1           5           6          12
 -6.396555932272186E-003           1           5           6          13
  8.959286071136847E-003           1           5           6          14
 -1.890537494374919E-002           1           5           7           1
 -9.943254870984120E-003           1           5           7           2
 -1.242456768859821E-002           1           5           7           9
  9.229300638359325E-003           1           5           7          10
 -6.275320234849587E-003           1           5           7          11
  7.960498427891467E-003           1           5           7          12
 -1.541418228828655E-002           1           5           7          13
 -4.765656231105532E-003           1           5           7          14
  4.235962082570610E-002           1           5           8           1
  2.227898189596628E-002           1           5           8           2
  2.783864259652534E-002           1           5           8           9
 -5.698534128283582E-003           1           5           8          10
 -1.653798565866036E-002           1           5           8          11
  4.819424155630947E-003           1           5           8          12
  1.109021830254599E-002           1           5           8          13
 -8.388022324113073E-003           1           5           8          14
  2.670568853510016E-002           1           5           9           5
 -1.633666827381136E-002           1           5           9           6
 -1.242456768859821E-002           1           5           9           7
  2.783864259652534E-002           1           5           9           8
  2.049913684699764E-002           1           5          10           3
 -2.098065467383909E-002           1           5          10           4
 -3.242549467727140E-003           1           5          10           5
 -1.282292427308313E-002           1           5          10           6
  9.229300638359325E-003           1           5          10           7
 -5.698534128283582E-003           1           5          10           8
  1.471609346128281E-002           1           5          11           3
  1.740858569698220E-002           1           5          11           4
 -2.164136779490134E-002           1           5          11           5
  2.666224461751775E-003           1           5          11           6
 -6.275320234849587E-003           1           5          11           7
 -1.653798565866036E-002           1           5          11           8
 -2.589163002059268E-002           1           5          12           3
 -6.146693468727195E-003           1           5          12           4
 -8.997777162318569E-003           1           5          12           5
  1.299964194052194E-002           1           5          12           6
  7.960498427891467E-003           1           5          12           7
  4.819424155630947E-003           1           5          12           8
  3.500318362808874E-003           1           5          13           3
  1.683656309578484E-002           1           5          13           4
  3.072322777624997E-002           1           5          13           5
 -6.396555932272186E-003           1           5          13           6
 -1.541418228828655E-002           1           5          13           7
  1.109021830254599E-002           1           5          13           8
 -2.727775411589519E-003           1           5          14           3
  1.619719379104270E-002           1           5          14           4
 -1.629080625135098E-002           1           5          14           5
  8.959286071136847E-003           1           5          14           6
 -4.765656231105532E-003           1           5          14           7
 -8.388022324113073E-003           1           5          14           8
 -4.230653862117053E-002           1           6           1           3
  1.902386575217421E-002           1           6           1           4
 -2.485807528993402E-002           1           6           1           5
  5.783836152597144E-002           1           6           1           6
 -3.935973314585350E-002           1           6           2           3
  1.769878377696979E-002           1           6           2           4
 -2.312661923709672E-002           1           6           2           5
  2.835344990424156E-002           1           6           2           6
 -4.230653862117053E-002           1           6           3           1
 -3.935973314585350E-002           1           6           3           2
 -2.216969078773181E-002           1           6           3           9
  7.378757814500396E-003           1           6           3          10
 -1.956289476884178E-002           1           6           3          11
  2.065276989387343E-002           1           6           3          12
  2.357444617311775E-002           1           6           3          13
  1.391642885651729E-002           1           6           3          14
  1.902386575217421E-002           1           6           4           1
  1.769878377696979E-002           1           6           4           2
  9.968984347539485E-003           1           6           4           9
  6.134268728372983E-003           1           6           4          10
 -2.272485543317760E-002           1           6           4          11
 -1.246032495926103E-002           1           6           4          12
 -2.274462425330983E-002           1           6           4          13
  1.258564593588857E-002           1           6           4          14
 -2.485807528993402E-002           1           6           5           1
 -2.312661923709672E-002           1           6           5           2
 -1.302625695027247E-002           1           6           5           9
 -2.253455779396094E-002           1           6           5          10
  4.685529442853970E-003           1           6           5          11
  2.284511523041661E-002           1           6           5          12
 -1.124108325592051E-002           1           6           5          13
  1.574473540224060E-002           1           6           5          14
  5.783836152597144E-002           1           6           6           1
  2.835344990424156E-002           1           6           6           2
  3.488899014428111E-002           1           6           6           9
  4.047217729577102E-003           1           6           6          10
  3.094567511928095E-003           1           6           6          11
 -1.862925444953933E-002           1           6           6          12
 -1.276901737056791E-002           1           6           6          13
 -8.220116071528295E-003           1           6           6          14
  6.038623753757647E-004           1           6           7          10
  1.339151511148519E-002           1           6           7          11
 -5.570820154624199E-004           1           6           7          12
  1.173156133800043E-002           1           6           7          13
 -1.162241225681321E-002           1           6           7          14
 -1.370681936478480E-002           1           6           8          10
  1.119260072179935E-002           1           6           8          11
  5.395804096485112E-003           1           6           8          12
 -1.041410268943306E-002           1           6           8          13
  1.413584283268729E-003           1           6           8          14
 -2.216969078773181E-002           1           6           9           3
  9.968984347539485E-003           1           6           9           4
 -1.302625695027247E-002           1           6           9           5
  3.488899014428111E-002           1           6           9           6
  7.378757814500396E-003           1           6          10           3
  6.134268728372983E-003           1           6          10           4
 -2.253455779396094E-002           1           6          10           5
  4.047217729577102E-003           1           6          10           6
  6.038623753757647E-004           1           6          10           7
 -1.370681936478480E-002           1           6          10           8
 -1.956289476884178E-002           1           6          11           3
 -2.272485543317760E-002           1           6          11           4
  4.685529442853970E-003           1           6          11           5
  3.094567511928095E-003           1           6          11           6
  1.339151511148519E-002           1           6          11           7
  1.119260072179935E-002           1           6          11           8
  2.065276989387343E-002           1           6          12           3
 -1.246032495926103E-002           1           6          12           4
  2.284511523041661E-002           1           6          12           5
 -1.862925444953933E-002           1           6          12           6
 -5.570820154624199E-004           1           6          12           7
  5.395804096485112E-003           1           6          12           8
  2.357444617311775E-002           1           6          13           3
 -2.274462425330983E-002           1           6          13           4
 -1.124108325592051E-002           1           6          13           5
 -1.276901737056791E-002           1           6          13           6
  1.173156133800043E-002           1           6          13           7
 -1.041410268943306E-002           1           6          13           8
  1.391642885651729E-002           1           6          14           3
  1.258564593588857E-002           1           6          14           4
  1.574473540224060E-002           1           6          14           5