 &FCI NORB=  23,NELEC= 8,MS2=0,
  ORBSYM=1,2,1,3,1,2,2,1,1,3,2,1,4,3,1,2,2,1,3,4,1,1,2
  ISYM=1,
 &END
 0.753328636798678    1    1    1    1
 0.6787773620698658    1    1    2    2
 -0.01752537992002505    1    1    3    1
 0.6795946084582837    1    1    3    3
 0.7137073463386528    1    1    4    4
 -0.1086031509230868    1    1    5    1
 0.05865621187136132    1    1    5    3
 0.3665450480967981    1    1    5    5
 -0.1245543498663249    1    1    6    2
 0.3454170831825379    1    1    6    6
 -0.03310552862227356    1    1    7    2
 0.1003116377177131    1    1    7    6
 0.5113319468079981    1    1    7    7
 -0.07101719948375013    1    1    8    1
 0.06616011900625983    1    1    8    3
 0.1125720032409746    1    1    8    5
 0.5229552201912002    1    1    8    8
 0.005716651170952909    1    1    9    1
 -0.1452946896148942    1    1    9    3
 -0.04849077649291624    1    1    9    5
 -0.02768458919845893    1    1    9    8
 0.5699017423953435    1    1    9    9
 -0.1884996944417355    1    1   10    4
 0.6171125254269971    1    1   10   10
 -0.1379191595838427    1    1   11    2
 0.1108442410067508    1    1   11    6
 0.02782579407276135    1    1   11    7
 0.5423529140836217    1    1   11   11
 0.04687012178199056    1    1   12    1
 0.05911007948047604    1    1   12    3
 -0.035127518693459    1    1   12    5
 0.004416476017933615    1    1   12    8
 0.01650667090411522    1    1   12    9
 0.5199744166148803    1    1   12   12
 0.5265736571555212    1    1   13   13
 0.01808242923301851    1    1   14    4
 0.02451935094843169    1    1   14   10
 0.5120303791943651    1    1   14   14
 -0.1001099341929693    1    1   15    1
 -0.02863526102020236    1    1   15    3
 0.07238532521849875    1    1   15    5
 -0.007783589650507169    1    1   15    8
 0.01326362105251643    1    1   15    9
 -0.02065345333535788    1    1   15   12
 0.5881666997373288    1    1   15   15
 -0.0003871486893407915    1    1   16    2
 -0.001163534541909052    1    1   16    6
 -0.008004665590187716    1    1   16    7
 0.01785959677892288    1    1   16   11
 0.4864082923580161    1    1   16   16
 0.005489354713970706    1    1   17    2
 -0.03142067808408392    1    1   17    6
 -0.1214916970567933    1    1   17    7
 -0.07325077313157587    1    1   17   11
 -0.003966425026449428    1    1   17   16
 0.6060718933217256    1    1   17   17
 0.03607814591922954    1    1   18    1
 -0.0111929881765641    1    1   18    3
 -0.05188870590109906    1    1   18    5
 -0.134072182348881    1    1   18    8
 0.04401638920103476    1    1   18    9
 0.03121831366253143    1    1   18   12
 -0.01674023463877854    1    1   18   15
 0.6269270456281012    1    1   18   18
 -0.03772038998904986    1    1   19    4
 0.01952527159684639    1    1   19   10
 -0.08905087511811374    1    1   19   14
 0.7046700988316379    1    1   19   19
 0.09065930172656227    1    1   20   13
 0.7053101239224384    1    1   20   20
 0.003616080753200695    1    1   21    1
 -0.03804868196747712    1    1   21    3
 -0.01103529164361104    1    1   21    5
 -0.0439299733810196    1    1   21    8
 0.002584922724595701    1    1   21    9
 -0.09433284803563401    1    1   21   12
 -0.03583858627094984    1    1   21   15
 0.003088058070784443    1    1   21   18
 0.7014408425452585    1    1   21   21
 0.01125427787074242    1    1   22    1
 -0.01819163517041751    1    1   22    3
 -0.00768388028195466    1    1   22    5
 -0.03173154839179487    1    1   22    8
 0.07486643586012935    1    1   22    9
 0.0222895715701519    1    1   22   12
 -0.06269007744183359    1    1   22   15
 -0.04975506176851386    1    1   22   18
 -0.004227256526977182    1    1   22   21
 0.6888140435425876    1    1   22   22
 -0.04892678130030251    1    1   23    2
 0.02040506058659601    1    1   23    6
 0.0004496705606705125    1    1   23    7
 0.1188304344682487    1    1   23   11
 -0.008425740887081269    1    1   23   16
 0.05363691265723097    1    1   23   17
 0.7008867236107303    1    1   23   23
 0.1538304053216951    2    1    2    1
 -0.0177061149085204    2    1    3    2
 0.0005180350499207456    2    1    5    2
 -0.03979352898887083    2    1    6    1
 -0.02434863005016261    2    1    6    3
 0.05057306530239049    2    1    6    5
 -0.003680221168447881    2    1    7    1
 -0.07688981857465274    2    1    7    3
 0.01006327534179625    2    1    7    5
 0.05968720458292789    2    1    8    2
 0.01660805572674576    2    1    8    6
 0.08204666393433969    2    1    8    7
 0.03546528291129371    2    1    9    2
 -0.005837310380534576    2    1    9    6
 -0.0009245727991943582    2    1    9    7
 -0.03691372057638382    2    1   11    1
 0.01219045711259167    2    1   11    3
 0.04273460236327296    2    1   11    5
 0.0421970012309966    2    1   11    8
 0.02076494608004927    2    1   11    9
 0.044703136740813    2    1   12    2
 -0.01483708981957768    2    1   12    6
 -0.04659165091395943    2    1   12    7
 -0.01115513762345712    2    1   12   11
 0.06564174651009647    2    1   13    4
 0.02490778071233904    2    1   13   10
 0.1083897350649045    2    1   14   13
 -0.02718138763135945    2    1   15    2
 0.01058704691911017    2    1   15    6
 -0.01562444686859533    2    1   15    7
 0.07621621635239194    2    1   15   11
 0.003366193398819421    2    1   16    1
 -0.002568391462918696    2    1   16    3
 0.004014830299083673    2    1   16    5
 0.05127104199278644    2    1   16    8
 0.04688830879593445    2    1   16    9
 0.09063927451179103    2    1   16   12
 0.01227732529441987    2    1   16   15
 -0.02106605811305912    2    1   17    1
 0.0545694095284202    2    1   17    3
 0.01440408484031511    2    1   17    5
 0.009934633462306081    2    1   17    8
 -0.04062133423500737    2    1   17    9
 0.002581910994522925    2    1   17   12
 -0.02561657430565151    2    1   17   15
 -0.04870398910157835    2    1   18    2
 0.02393334910320672    2    1   18    6
 -0.002438289201203492    2    1   18    7
 0.006583695007800944    2    1   18   11
 -0.01126576105393365    2    1   18   16
 0.1024509047655067    2    1   18   17
 0.02418322882906822    2    1   19   13
 0.08688343272780286    2    1   20    4
 -0.04711813321891343    2    1   20   10
 -0.0276837739406087    2    1   20   14
 -0.01064320141721828    2    1   20   19
 -0.05291954598593439    2    1   21    2
 0.03115946410054035    2    1   21    6
 0.01839911545506972    2    1   21    7
 0.03586364420731839    2    1   21   11
 0.02434536971143835    2    1   21   16
 -0.00975231225265851    2    1   21   17
 0.03986309811450635    2    1   22    2
 -0.03299841850676751    2    1   22    6
 -0.06480715760435497    2    1   22    7
 -0.02136239841122796    2    1   22   11
 -0.01090324759963759    2    1   22   16
 0.05301071854498135    2    1   22   17
 -0.01380948593176332    2    1   23    1
 0.0544299422281186    2    1   23    3
 0.02450354759016596    2    1   23    5
 0.05894633821615958    2    1   23    8
 -0.03197681751345675    2    1   23    9
 -0.01144784522859124    2    1   23   12
 0.009322391310025125    2    1   23   15
 -0.05096496943468278    2    1   23   18
 -0.0042363296553045    2    1   23   21
 -0.02047550377980574    2    1   23   22
 0.6787773620698659    2    2    1    1
 0.6633440672263393    2    2    2    2
 -0.01483975985879244    2    2    3    1
 0.6050693158756021    2    2    3    3
 0.621703578861189    2    2    4    4
 -0.0785810636553704    2    2    5    1
 0.03771467126976712    2    2    5    3
 0.3564664219761415    2    2    5    5
 -0.1063498522412063    2    2    6    2
 0.3478860155847911    2    2    6    6
 -0.01260679444814349    2    2    7    2
 0.09596247428584641    2    2    7    6
 0.5189395015177867    2    2    7    7
 -0.0232509108531733    2    2    8    1
 0.0301159769027553    2    2    8    3
 0.1022964754402392    2    2    8    5
 0.5229401846672067    2    2    8    8
 0.01434388660779049    2    2    9    1
 -0.1174095025771322    2    2    9    3
 -0.03659811804148482    2    2    9    5
 -0.006045599008183847    2    2    9    8
 0.5229530870123118    2    2    9    9
 -0.1420007964699627    2    2   10    4
 0.5480458938780389    2    2   10   10
 -0.1099959236738669    2    2   11    2
 0.1026134562930451    2    2   11    6
 0.02736209358189026    2    2   11    7
 0.5249458402567054    2    2   11   11
 0.05207819087017831    2    2   12    1
 0.0530566108377705    2    2   12    3
 -0.0273250720077196    2    2   12    5
 0.01064357391346869    2    2   12    8
 0.02937316989395833    2    2   12    9
 0.5052172228574223    2    2   12   12
 0.5293681479261219    2    2   13   13
 0.02605026788121781    2    2   14    4
 0.03128073792706122    2    2   14   10
 0.5046726402924809    2    2   14   14
 -0.0835238601687754    2    2   15    1
 -0.02168993644675477    2    2   15    3
 0.06143557292871556    2    2   15    5
 -0.009809901225051581    2    2   15    8
 0.0176332796535931    2    2   15    9
 -0.007000185447099626    2    2   15   12
 0.539720280441638    2    2   15   15
 0.02313972982931019    2    2   16    2
 0.0008239279795928545    2    2   16    6
 -0.0005575422785366792    2    2   16    7
 0.02653420606487215    2    2   16   11
 0.4982374708890039    2    2   16   16
 -0.001057285058354856    2    2   17    2
 -0.01774408697968582    2    2   17    6
 -0.09956998491372082    2    2   17    7
 -0.06032674996734148    2    2   17   11
 -0.01118660803614287    2    2   17   16
 0.5937178096001922    2    2   17   17
 0.001374141907923597    2    2   18    1
 -0.005745046963208642    2    2   18    3
 -0.02818547379965533    2    2   18    5
 -0.1023364720788628    2    2   18    8
 0.01757699835127684    2    2   18    9
 0.01250472010596448    2    2   18   12
 -0.01190172721274826    2    2   18   15
 0.5935461453959765    2    2   18   18
 -0.01853075001027975    2    2   19    4
 0.01640448163308644    2    2   19   10
 -0.04996105297444804    2    2   19   14
 0.6079429737497949    2    2   19   19
 0.06648999612455773    2    2   20   13
 0.650780563835219    2    2   20   20
 -0.02345589544714296    2    2   21    1
 -0.02750541885471948    2    2   21    3
 0.003018707332229011    2    2   21    5
 -0.02607707230181798    2    2   21    8
 0.003096908926611515    2    2   21    9
 -0.06669423837604527    2    2   21   12
 -0.01249709345993272    2    2   21   15
 0.01284621210553532    2    2   21   18
 0.6281280229680178    2    2   21   21
 0.02428614624633409    2    2   22    1
 0.004649679920228678    2    2   22    3
 -0.01028100471039734    2    2   22    5
 -0.0397024823503984    2    2   22    8
 0.05121790788637485    2    2   22    9
 0.03073646761626963    2    2   22   12
 -0.04860677051035852    2    2   22   15
 -0.02705057659805969    2    2   22   18
 -0.02779774553949782    2    2   22   21
 0.6390319085453096    2    2   22   22
 -0.0281071557683874    2    2   23    2
 0.01252600900002464    2    2   23    6
 0.008809403148368398    2    2   23    7
 0.0987881622217503    2    2   23   11
 -0.003389412369237382    2    2   23   16
 0.03285861427008088    2    2   23   17
 0.6498197531672426    2    2   23   23
 -0.01752537992002507    3    1    1    1
 -0.01483975985879238    3    1    2    2
 0.1261855950358421    3    1    3    1
 0.07065451736815871    3    1    3    3
 0.03767996079393807    3    1    4    4
 0.01686208456334009    3    1    5    1
 0.003473403474650577    3    1    5    3
 -0.02948389246164139    3    1    5    5
 -0.0227718350839766    3    1    6    2
 -0.01013394788534814    3    1    6    6
 -0.07173200022466665    3    1    7    2
 0.008164474889145212    3    1    7    6
 -0.02584591240846983    3    1    7    7
 0.01565160497042837    3    1    8    1
 0.008873365027567618    3    1    8    3
 -0.02047899396683972    3    1    8    5
 -0.06412246608165739    3    1    8    8
 -0.02903780907901886    3    1    9    1
 -0.04372467806373929    3    1    9    3
 0.02927350819175059    3    1    9    5
 -0.01240101996584274    3    1    9    8
 0.02879495351629763    3    1    9    9
 -0.0243309277048661    3    1   10    4
 0.03367383095588079    3    1   10   10
 0.005621282827443205    3    1   11    2
 0.001129796355638458    3    1   11    6
 -0.008804945718215081    3    1   11    7
 0.02722247688146397    3    1   11   11
 0.0237442395097647    3    1   12    1
 -0.05030868558060338    3    1   12    3
 -0.01073442420295478    3    1   12    5
 0.009087935418250037    3    1   12    8
 -0.05898407778177545    3    1   12    9
 -0.01280210904758951    3    1   12   12
 -0.06094684973068028    3    1   13   13
 -0.05423997829359278    3    1   14    4
 -0.01386156634089209    3    1   14   10
 -0.04068759836419241    3    1   14   14
 -0.002979691028077866    3    1   15    1
 -0.04712578937585302    3    1   15    3
 -0.003039742895718961    3    1   15    5
 -0.007411086701246064    3    1   15    8
 0.06357073482293844    3    1   15    9
 -0.02646007712137157    3    1   15   12
 0.01668430662048323    3    1   15   15
 0.004370460574450595    3    1   16    2
 0.01146950150927957    3    1   16    6
 0.03688143069810985    3    1   16    7
 -0.02094931708329308    3    1   16   11
 -0.05752404885501206    3    1   16   16
 0.05545356562260123    3    1   17    2
 -0.03257546635340555    3    1   17    6
 -0.01903775633780821    3    1   17    7
 -0.04056445807385832    3    1   17   11
 -0.01921799138187882    3    1   17   16
 -0.02605059869009564    3    1   17   17
 0.01216435165761633    3    1   18    1
 -0.0149878846354446    3    1   18    3
 -0.004594398392331163    3    1   18    5
 -0.003888763185615334    3    1   18    8
 -0.00624661467379408    3    1   18    9
 -0.01761720183423875    3    1   18   12
 0.0139697284600998    3    1   18   15
 -0.05321951382169817    3    1   18   18
 0.08329129826149265    3    1   19    4
 -0.04054000716914533    3    1   19   10
 -0.0309452507471995    3    1   19   14
 0.03105943867604883    3    1   19   19
 0.02783279068166805    3    1   20   13
 0.04594945713646172    3    1   20   20
 -0.02098686874722741    3    1   21    1
 0.07668871573892702    3    1   21    3
 0.02957322767147591    3    1   21    5
 0.04542686833206593    3    1   21    8
 -0.03971297435888468    3    1   21    9
 -0.02503781534175619    3    1   21   12
 -0.01976260671464511    3    1   21   15
 -0.01641583461892038    3    1   21   18
 0.02482570913883991    3    1   21   21
 0.003584500653185763    3    1   22    1
 0.001832469575338802    3    1   22    3
 0.002250245084036383    3    1   22    5
 0.02743194058050638    3    1   22    8
 0.01714175936344678    3    1   22    9
 -0.006539448778195918    3    1   22   12
 -0.002016230600237687    3    1   22   15
 -0.0444561741017851    3    1   22   18
 -0.01079600971218421    3    1   22   21
 0.03321783345354615    3    1   22   22
 0.04461096685436125    3    1   23    2
 -0.03198619249510929    3    1   23    6
 -0.04772988559837657    3    1   23    7
 -0.02453164932590557    3    1   23   11
 -0.008664583804940874    3    1   23   16
 0.03991165759014294    3    1   23   17
 0.02870052787739788    3    1   23   23
 -0.01770611490852039    3    2    2    1
 0.04051800845085    3    2    3    2
 -0.005160288590941232    3    2    5    2
 -0.007789120885056044    3    2    6    1
 -0.006318504635358674    3    2    6    3
 -0.01688314508996924    3    2    6    5
 -0.03435469687844897    3    2    7    1
 0.006451274030057628    3    2    7    3
 -0.009319423716612461    3    2    7    5
 -0.02356279854735037    3    2    8    2
 -0.01095250904943    3    2    8    6
 -0.04423613823487636    3    2    8    7
 -0.01350685396336333    3    2    9    2
 0.008512497600635707    3    2    9    6
 0.003430026979754583    3    2    9    7
 0.003792695638998602    3    2   11    1
 -0.007119936984278684    3    2   11    3
 -0.003857006866361356    3    2   11    5
 -0.01518731083436115    3    2   11    8
 0.01533941482755566    3    2   11    9
 0.009546990661587247    3    2   12    2
 8.046781386812524e-06    3    2   12    6
 0.02118579282402671    3    2   12    7
 -0.0126465082938694    3    2   12   11
 -0.01153415339328425    3    2   13    4
 -0.01247805610860628    3    2   13   10
 -0.04724591922878775    3    2   14   13
 0.003554125560533229    3    2   15    2
 0.004617594826647779    3    2   15    6
 0.01438675338205246    3    2   15    7
 0.001390481332471242    3    2   15   11
 0.0006498998928536288    3    2   16    1
 -0.01532654818327168    3    2   16    3
 -0.001056341687545991    3    2   16    5
 -0.0131789857243567    3    2   16    8
 -0.02200429529318836    3    2   16    9
 -0.03092686008056225    3    2   16   12
 -0.006210094159012585    3    2   16   15
 0.0293539398843931    3    2   17    1
 0.007066221932186637    3    2   17    3
 -0.01187362086177263    3    2   17    5
 -0.006759238347345391    3    2   17    8
 -0.001790831231266104    3    2   17    9
 0.001575006323779271    3    2   17   12
 -0.01232999202105558    3    2   17   15
 0.008141211652859985    3    2   18    2
 -0.00824252710187569    3    2   18    6
 0.006310830772400755    3    2   18    7
 -0.01037051173052429    3    2   18   11
 -0.002087259714320086    3    2   18   16
 -0.04446973086102409    3    2   18   17
 -0.00723258352779057    3    2   19   13
 0.01326673151320745    3    2   20    4
 -0.0003783478836810298    3    2   20   10
 0.005910467273887257    3    2   20   14
 0.02914826225278085    3    2   20   19
 -0.004978911823908245    3    2   21    2
 0.003354059001120887    3    2   21    6
 0.009853451672888335    3    2   21    7
 0.0008051080636351423    3    2   21   11
 -0.01380102254416051    3    2   21   16
 0.0006493965453282179    3    2   21   17
 0.01916749806485319    3    2   22    2
 -0.006315929118745683    3    2   22    6
 0.004157114649721023    3    2   22    7
 -0.0007493007454340532    3    2   22   11
 0.002482879808456866    3    2   22   16
 -0.008671835843276802    3    2   22   17
 0.02265712627576509    3    2   23    1
 0.020117500518184    3    2   23    3
 -0.00783770113664063    3    2   23    5
 -0.01167001890891208    3    2   23    8
 -0.006253450380424947    3    2   23    9
 0.007033779131750987    3    2   23   12
 -0.009648697690544047    3    2   23   15
 0.0110772947910661    3    2   23   18
 0.01248661026410996    3    2   23   21
 0.03469322466481164    3    2   23   22
 0.6795946084582838    3    3    1    1
 0.6050693158756021    3    3    2    2
 0.0706545173681586    3    3    3    1
 0.7277852111344321    3    3    3    3
 0.6640359060890654    3    3    4    4
 -0.07652182698494127    3    3    5    1
 0.05752958363142246    3    3    5    3
 0.3397693632894897    3    3    5    5
 -0.1134153766154178    3    3    6    2
 0.3263831732404757    3    3    6    6
 -0.05773477715759744    3    3    7    2
 0.09772723303375415    3    3    7    6
 0.4820696876773416    3    3    7    7
 -0.04493192336030308    3    3    8    1
 0.07089191208933993    3    3    8    3
 0.08865924836696686    3    3    8    5
 0.4619903884522378    3    3    8    8
 -0.02751308705382748    3    3    9    1
 -0.1615351059052531    3    3    9    3
 -0.0289922059684113    3    3    9    5
 -0.04019988265649028    3    3    9    8
 0.5872078203428075    3    3    9    9
 -0.1701265442822005    3    3   10    4
 0.5861637948753903    3    3   10   10
 -0.1093770837733048    3    3   11    2
 0.09377882643315605    3    3   11    6
 0.01459930447957179    3    3   11    7
 0.5195600117810404    3    3   11   11
 0.02565975808338962    3    3   12    1
 0.02082998157911814    3    3   12    3
 -0.04195471723885635    3    3   12    5
 0.004810515921591663    3    3   12    8
 -0.02676114490345483    3    3   12    9
 0.5069005564087804    3    3   12   12
 0.4598910290666521    3    3   13   13
 -0.02042985285167881    3    3   14    4
 0.01690956953595374    3    3   14   10
 0.4696102229602412    3    3   14   14
 -0.09886296946571942    3    3   15    1
 -0.06821618557356193    3    3   15    3
 0.05904251963984713    3    3   15    5
 -0.01963391418888706    3    3   15    8
 0.06447031028632967    3    3   15    9
 -0.03420032653753276    3    3   15   12
 0.5612718357863548    3    3   15   15
 -0.01423346730898696    3    3   16    2
 0.003734586456570929    3    3   16    6
 0.005694156062416316    3    3   16    7
 -9.892624634422538e-05    3    3   16   11
 0.4441771295499732    3    3   16   16
 0.04391900064152163    3    3   17    2
 -0.04509941704573305    3    3   17    6
 -0.1202616241139166    3    3   17    7
 -0.08072400376092899    3    3   17   11
 -0.01135350350647398    3    3   17   16
 0.5589820345220855    3    3   17   17
 0.02966815283663303    3    3   18    1
 -0.02209762589553438    3    3   18    3
 -0.04305747633996382    3    3   18    5
 -0.1095928759278637    3    3   18    8
 0.04894504681526819    3    3   18    9
 0.02267657225632641    3    3   18   12
 -0.002784804302681909    3    3   18   15
 0.5522033447240128    3    3   18   18
 0.03914228055842965    3    3   19    4
 -0.01615501231281562    3    3   19   10
 -0.1021819885834546    3    3   19   14
 0.6897922744038459    3    3   19   19
 0.07874115270780185    3    3   20   13
 0.6511834124059266    3    3   20   20
 0.02906824722146328    3    3   21    1
 0.04764520281433014    3    3   21    3
 -0.001140931301442028    3    3   21    5
 -0.01600409889279282    3    3   21    8
 -0.032741456482865    3    3   21    9
 -0.0958439725936331    3    3   21   12
 -0.05969495832292282    3    3   21   15
 -0.01230836399811491    3    3   21   18
 0.6984735892518903    3    3   21   21
 0.0112413552116749    3    3   22    1
 -0.01552706072374438    3    3   22    3
 -0.004149080494284814    3    3   22    5
 -0.01870433943442764    3    3   22    8
 0.07320755153045974    3    3   22    9
 0.01059136447394565    3    3   22   12
 -0.04557688606538339    3    3   22   15
 -0.0529743515939483    3    3   22   18
 -0.001116449885342554    3    3   22   21
 0.6416279848753808    3    3   22   22
 0.001803336668902557    3    3   23    2
 -0.01071817028002772    3    3   23    6
 -0.03542052324656261    3    3   23    7
 0.07871841015228817    3    3   23   11
 -0.02067234878794549    3    3   23   16
 0.08016875564362339    3    3   23   17
 0.6807892151791229    3    3   23   23
 0.128834816871274    4    1    4    1
 0.03101731989703453    4    1    4    3
 -0.0216049406097146    4    1    5    4
 -0.04575713841013634    4    1    8    4
 -0.02549965876119765    4    1    9    4
 -0.03969021489376246    4    1   10    1
 -0.01568283077649773    4    1   10    3
 0.04063059147776234    4    1   10    5
 0.01712699789440165    4    1   10    8
 0.008755414115420921    4    1   10    9
 0.02467711493887781    4    1   12    4
 -0.03190171863138191    4    1   12   10
 0.0592898407062472    4    1   13    2
 -0.0032620809573819    4    1   13    6
 0.003447661079008622    4    1   13    7
 0.004954004545772514    4    1   13   11
 0.01458643712761399    4    1   14    1
 -0.05280962149730541    4    1   14    3
 -0.003360816137752963    4    1   14    5
 0.01391367849999961    4    1   14    8
 0.001576499312768891    4    1   14    9
 0.006219437874685774    4    1   14   12
 0.03783670130605787    4    1   15    4
 0.07599204854540111    4    1   15   10
 -0.007679296622720525    4    1   15   14
 -0.009719188011734299    4    1   16   13
 -0.02292443273295747    4    1   17   13
 0.06322035879945649    4    1   18    4
 -0.04675907825402185    4    1   18   10
 -0.02246768568201072    4    1   18   14
 -0.02047299962720583    4    1   19    1
 0.07832454416064998    4    1   19    3
 0.02894559888895319    4    1   19    5
 0.04840338009897896    4    1   19    8
 -0.02557335068342282    4    1   19    9
 -0.006530648720178656    4    1   19   12
 -0.01906894123774762    4    1   19   15
 -0.01848578554101891    4    1   19   18
 0.07295449975345662    4    1   20    2
 -0.04434583008422277    4    1   20    6
 -0.04838635983620074    4    1   20    7
 -0.02950466754226935    4    1   20   11
 -0.00971014206763237    4    1   20   16
 0.01488656193467823    4    1   20   17
 -0.0348381233880505    4    1   21    4
 0.02157201143822992    4    1   21   10
 0.008579662887943694    4    1   21   14
 -0.008159926964393634    4    1   21   19
 -0.07585497342398498    4    1   22    4
 0.04725983664380517    4    1   22   10
 0.006951985511172149    4    1   22   14
 -0.001928233054037845    4    1   22   19
 -0.004339217945298952    4    1   23   13
 -0.009989800247546306    4    1   23   20
 0.03017794204909068    4    2    4    2
 -0.01048910840153192    4    2    6    4
 -0.01208079934602989    4    2    7    4
 -0.005428618940012055    4    2   10    2
 0.009218524182593184    4    2   10    6
 0.004321105147507316    4    2   10    7
 -0.005969059369083439    4    2   11    4
 0.0201150022551451    4    2   11   10
 0.02598270929353796    4    2   13    1
 -0.006467245493753672    4    2   13    3
 0.003014274676548155    4    2   13    5
 0.007820430249137427    4    2   13    8
 -0.0002479180380430918    4    2   13    9
 0.006702894218605542    4    2   13   12
 0.01499473927683359    4    2   14    2
 0.003485929167884255    4    2   14    6
 0.01256944980264518    4    2   14    7
 0.000417631344919093    4    2   14   11
 0.01066081430821834    4    2   15   13
 -0.004697147807322812    4    2   16    4
 -0.002455787257199668    4    2   16   10
 0.002961470745992252    4    2   16   14
 0.001195149779770853    4    2   17    4
 -0.01289716169527504    4    2   17   10
 -0.01157901692746125    4    2   17   14
 -0.006247213701604652    4    2   18   13
 0.001989343099100344    4    2   19    2
 0.001263371859914224    4    2   19    6
 -0.002297979064586687    4    2   19    7
 0.006528425423662515    4    2   19   11
 0.0009198813303978075    4    2   19   16
 0.01089026435612726    4    2   19   17
 0.03614106141862559    4    2   20    1
 0.01510948275518917    4    2   20    3
 -0.01211376813823697    4    2   20    5
 -0.01095506910638047    4    2   20    8
 -0.001247466861593561    4    2   20    9
 0.01408578954213087    4    2   20   12
 0.001040583999051681    4    2   20   15
 0.00613548535314696    4    2   20   18
 -0.00716918691988362    4    2   21   13
 -0.02697804076752831    4    2   21   20
 -0.003429833281407032    4    2   22   13
 -0.0008239205558041242    4    2   22   20
 -0.005707558908517742    4    2   23    4
 0.005081661977733384    4    2   23   10
 -0.003405132641663927    4    2   23   14
 0.02187350585585036    4    2   23   19
 0.03101731989703453    4    3    4    1
 0.04312760712074798    4    3    4    3
 0.0006488805165062319    4    3    5    4
 -0.002751612291199216    4    3    8    4
 -0.01483409691653338    4    3    9    4
 -0.01269713958216696    4    3   10    1
 -0.01326350927511058    4    3   10    3
 0.00585901566824278    4    3   10    5
 -0.003049271148093617    4    3   10    8
 0.02554379782114719    4    3   10    9
 0.004469656494234476    4    3   12    4
 -0.01516529055266295    4    3   12   10
 0.002374754706702491    4    3   13    2
 -0.004330825739632419    4    3   13    6
 -0.00990157014305903    4    3   13    7
 0.001332196955197734    4    3   13   11
 -0.02035486163213311    4    3   14    1
 -0.01549652932762087    4    3   14    3
 -0.002850498895667364    4    3   14    5
 0.001649032071492067    4    3   14    8
 0.004897900071863682    4    3   14    9
 0.01054190247902228    4    3   14   12
 0.004723122165897157    4    3   15    4
 0.02208488245062174    4    3   15   10
 -0.008175363421837079    4    3   15   14
 0.002622198102419631    4    3   16   13
 0.005238036077270565    4    3   17   13
 0.0172268091047967    4    3   18    4
 -0.00374720420218165    4    3   18   10
 -0.005950758683888402    4    3   18   14
 0.03426593321281054    4    3   19    1
 0.03851060337185493    4    3   19    3
 -0.00420677888699527    4    3   19    5
 -0.002889675654448818    4    3   19    8
 -0.01768343831497847    4    3   19    9
 -0.003359345668910486    4    3   19   12
 -0.006816800177259092    4    3   19   15
 0.008832441727935033    4    3   19   18
 0.02496191872234812    4    3   20    2
 -0.0127983591944311    4    3   20    6
 -0.01883574691962061    4    3   20    7
 -0.002786781429801098    4    3   20   11
 -0.007630927671876103    4    3   20   16
 0.01710853509243274    4    3   20   17
 -0.01489381560181574    4    3   21    4
 0.005902211572115175    4    3   21   10
 -0.002802811617138573    4    3   21   14
 0.01781849524701098    4    3   21   19
 -0.02858100015670069    4    3   22    4
 0.01923042894263504    4    3   22   10
 0.01114017910925399    4    3   22   14
 -0.01955419163640904    4    3   22   19
 0.003176341338923794    4    3   23   13
 0.02102871388024937    4    3   23   20
 0.7137073463386531    4    4    1    1
 0.621703578861189    4    4    2    2
 0.0376799607939381    4    4    3    1
 0.6640359060890655    4    4    3    3
 0.7604352458736353    4    4    4    4
 -0.09829969026545735    4    4    5    1
 0.05419779413165322    4    4    5    3
 0.3465339888127701    4    4    5    5
 -0.1210300628701273    4    4    6    2
 0.3285191850167342    4    4    6    6
 -0.06558800891654595    4    4    7    2
 0.09269290460115445    4    4    7    6
 0.4627645528233018    4    4    7    7
 -0.0795849801945238    4    4    8    1
 0.06569428180237824    4    4    8    3
 0.09490613327780219    4    4    8    5
 0.4671663182724441    4    4    8    8
 -0.01640170604512106    4    4    9    1
 -0.1499985389693506    4    4    9    3
 -0.03415648244121282    4    4    9    5
 -0.03173408109205199    4    4    9    8
 0.5539940142924352    4    4    9    9
 -0.2058815540996293    4    4   10    4
 0.6584161490108258    4    4   10   10