 &FCI NORB=  6,NELEC=  6,MS2= 0,
  ORBSYM=1,1,1,1,1,1,
  ISYM=1,
  OCC=  3,  0,  0,  0,  0,  0,  0,  0,
  CLOSED=  3,  0,  0,  0,  0,  0,  0,  0,
 /
  0.5536140872437706E+00   1   1   1   1
  0.1200070583790584E-15   2   1   1   1
  0.2329624152515485E-01   2   1   2   1
  0.5003598508469924E+00   2   2   1   1
  0.3399667485047312E-15   2   2   2   1
  0.5751822340312802E+00   2   2   2   2
  0.4200121574328088E-16   3   1   1   1
  0.3046721642978159E-16   3   1   2   1
 -0.6713433569546759E-16   3   1   2   2
  0.2329624152844946E-01   3   1   3   1
  0.6249721375693859E-16   3   2   1   1
 -0.4586453942448775E-17   3   2   2   1
 -0.4771001012980770E-15   3   2   2   2
  0.4699697036614415E-17   3   2   3   1
  0.2327398693596559E-01   3   2   3   2
  0.5003598508472291E+00   3   3   1   1
  0.3396507595368457E-15   3   3   2   1
  0.5286342600812520E+00   3   3   2   2
 -0.5844455869617482E-16   3   3   3   1
  0.5633670395236535E-15   3   3   3   2
  0.5751822340263002E+00   3   3   3   3
 -0.7595839444083687E-13   4   1   1   1
  0.1255783890269298E-16   4   1   2   1
 -0.5452039373351342E-13   4   1   2   2
  0.1634227047461010E-15   4   1   3   1
  0.9963203380287393E-17   4   1   3   2
 -0.5493225380251997E-13   4   1   3   3
  0.2166905171052071E-02   4   1   4   1
  0.3770941672133674E-15   4   2   1   1
 -0.7917928465661639E-15   4   2   2   1
  0.4976213273045099E-15   4   2   2   2
  0.1489591023686315E-16   4   2   3   1
  0.1698271086409072E-15   4   2   3   2
  0.4373791635746614E-15   4   2   3   3
 -0.5722667177489989E-17   4   2   4   1
  0.6933540778951731E-03   4   2   4   2
  0.2745218937921295E-14   4   3   1   1
  0.2110848702446453E-17   4   3   2   1
  0.3011952928474537E-14   4   3   2   2
 -0.1431634758658484E-14   4   3   3   1
  0.2806162610622038E-16   4   3   3   2
  0.3349201239737896E-14   4   3   3   3
  0.3938513970423960E-16   4   3   4   1
 -0.6413018974705649E-15   4   3   4   2
  0.6933539847294376E-03   4   3   4   3
  0.1710961382194984E+00   4   4   1   1
 -0.8582676319935916E-16   4   4   2   1
  0.1636602809958977E+00   4   4   2   2
 -0.2056930480295555E-16   4   4   3   1
  0.4754817687517324E-15   4   4   3   2
  0.1636602810644015E+00   4   4   3   3
  0.1517674874662589E-12   4   4   4   1
 -0.1095667394957835E-16   4   4   4   2
  0.3539437861559799E-16   4   4   4   3
  0.1696473468753396E+00   4   4   4   4
 -0.8199613190630044E-16   5   1   1   1
  0.2963991899140872E-14   5   1   2   1
 -0.3681375487353936E-16   5   1   2   2
 -0.1561227305577485E-16   5   1   3   1
 -0.7222624222306671E-17   5   1   3   2
 -0.5001780509819743E-16   5   1   3   3
 -0.9040741161713261E-16   5   1   4   1
 -0.1855101517925145E-02   5   1   4   2
  0.1803353701677582E-06   5   1   4   3
 -0.4835319948501043E-18   5   1   4   4
  0.2033533303712926E-01   5   1   5   1
  0.1179489990520505E-13   5   2   1   1
  0.6205870745333079E-16   5   2   2   1
  0.4449565715880517E-15   5   2   2   2
 -0.6718151599021781E-16   5   2   3   1
 -0.1121743731498922E-15   5   2   3   2
  0.3433696159340323E-15   5   2   3   3
 -0.4167386817020946E-02   5   2   4   1
 -0.1614636108244234E-15   5   2   4   2
 -0.3227940146465772E-15   5   2   4   3
  0.1470752773022441E-13   5   2   4   4
  0.3338752676003016E-15   5   2   5   1
  0.7077415080808495E-01   5   2   5   2
 -0.3870777371719819E-15   5   3   1   1
  0.5481716147910679E-17   5   3   2   1
 -0.4350357908375637E-15   5   3   2   2
 -0.4846989906533433E-17   5   3   3   1
  0.9052019662443628E-16   5   3   3   2
 -0.4530947685025100E-15   5   3   3   3
  0.4051138000467111E-06   5   3   4   1
 -0.4453417323309760E-16   5   3   4   2
 -0.1246083525934298E-16   5   3   4   3
 -0.1975157841762474E-16   5   3   4   4
  0.3662398043374310E-16   5   3   5   1
 -0.6204213388078303E-05   5   3   5   2
  0.6951696481906862E-02   5   3   5   3
 -0.4123207259659516E-15   5   4   1   1
  0.1676664651303113E-02   5   4   2   1
 -0.5265070731844515E-15   5   4   2   2
 -0.1629894156427595E-06   5   4   3   1
 -0.5754084013403633E-16   5   4   3   2
 -0.4396170583874139E-15   5   4   3   3
  0.6608522562323160E-17   5   4   4   1
  0.1020364348569558E-13   5   4   4   2
 -0.3593960795199996E-17   5   4   4   3
 -0.7889301696598843E-16   5   4   4   4
  0.3166737705395661E-14   5   4   5   1
  0.1113673793657274E-15   5   4   5   2
  0.6476794028855905E-16   5   4   5   3
  0.1009200790900555E-01   5   4   5   4
  0.3407017786603945E+00   5   5   1   1
  0.1698672344676288E-15   5   5   2   1
  0.3543357567577986E+00   5   5   2   2
  0.2703965498530017E-16   5   5   3   1
 -0.1941420308177410E-05   5   5   3   2
  0.3343644563412758E+00   5   5   3   3
 -0.2886579864025407E-13   5   5   4   1
  0.2352502359088324E-15   5   5   4   2
  0.1554844425130536E-14   5   5   4   3
  0.1610041612423496E+00   5   5   4   4
 -0.3335854430377156E-16   5   5   5   1
 -0.1151856388048600E-14   5   5   5   2
 -0.1756593866674913E-15   5   5   5   3
 -0.2233474134781361E-15   5   5   5   4
  0.2694958227664804E+00   5   5   5   5
 -0.4192845826411418E-15   6   1   1   1
 -0.4760449571533296E-16   6   1   2   1
 -0.2978303080797331E-15   6   1   2   2
  0.3040536572518349E-14   6   1   3   1
  0.8042726923500431E-17   6   1   3   2
 -0.2783791948334904E-15   6   1   3   3
 -0.9789880474600601E-16   6   1   4   1
 -0.1803353647536321E-06   6   1   4   2
 -0.1855101582974028E-02   6   1   4   3
 -0.2889874553817567E-16   6   1   4   4
  0.6040800255492887E-16   6   1   5   1
 -0.1137182692473379E-15   6   1   5   2
  0.3677215739144003E-16   6   1   5   3
  0.6541129008134672E-16   6   1   5   4
 -0.1591560610191512E-15   6   1   5   5
  0.2033533303742211E-01   6   1   6   1
 -0.9427678341989064E-15   6   2   1   1
 -0.2261599092992880E-16   6   2   2   1
 -0.1161029701927805E-14   6   2   2   2
  0.2831548616634207E-17   6   2   3   1
  0.3207703765688675E-16   6   2   3   2
 -0.1050337185105172E-14   6   2   3   3
 -0.4051137972874979E-06   6   2   4   1
 -0.3950287577957347E-16   6   2   4   2
 -0.5832468482822758E-17   6   2   4   3
 -0.2913984014208422E-16   6   2   4   4
 -0.9869547585620191E-17   6   2   5   1
  0.6204213381685702E-05   6   2   5   2
  0.6951695274998910E-02   6   2   5   3
  0.6610242943297574E-16   6   2   5   4
 -0.4736989405872312E-15   6   2   5   5
 -0.9985976732761712E-16   6   2   6   1
  0.6951696480080602E-02   6   2   6   2
  0.1033910099861367E-13   6   3   1   1
  0.6549777878694333E-16   6   3   2   1
 -0.1235448375547232E-14   6   3   2   2
 -0.4343108315772165E-16   6   3   3   1
 -0.1584858337801647E-15   6   3   3   2
 -0.1037574888704446E-14   6   3   3   3
 -0.4167386850440546E-02   6   3   4   1
 -0.1447015624393854E-15   6   3   4   2
 -0.4067116281218424E-15   6   3   4   3
  0.1251050044828619E-13   6   3   4   4
  0.3947893481397692E-15   6   3   5   1
  0.5687075913407551E-01   6   3   5   2
 -0.6204213379703039E-05   6   3   5   3
  0.9933508350986088E-16   6   3   5   4
 -0.1561251128379126E-14   6   3   5   5
 -0.9984555107709534E-16   6   3   6   1
  0.6204213388308436E-05   6   3   6   2
  0.7077415079232482E-01   6   3   6   3
 -0.1075975517144508E-14   6   4   1   1
  0.1629894247465385E-06   6   4   2   1
 -0.1083615792532047E-14   6   4   2   2
  0.1676664541831930E-02   6   4   3   1
 -0.4467014218464896E-16   6   4   3   2
 -0.1196922718757703E-14   6   4   3   3
  0.8050616939626434E-17   6   4   4   1
  0.3157696475716669E-16   6   4   4   2
  0.8673617379884035E-14   6   4   4   3
 -0.1018521452744485E-15   6   4   4   4
  0.7122792286742001E-16   6   4   5   1
  0.4898406226642000E-15   6   4   5   2
  0.1315666911335905E-16   6   4   5   3
  0.3192904329672148E-13   6   4   5   4
 -0.5846634013325639E-15   6   4   5   5
  0.2962474016099392E-14   6   4   6   1
 -0.6605130608191457E-17   6   4   6   2
  0.6322866194283832E-15   6   4   6   3
  0.1009200755473683E-01   6   4   6   4
  0.2829126378890268E-14   6   5   1   1
  0.6434395866825389E-17   6   5   2   1
  0.1941420316537583E-05   6   5   2   2
  0.7364991099915812E-16   6   5   3   1
  0.9985650180178876E-02   6   5   3   2
 -0.1941420308771945E-05   6   5   3   3
  0.7708980959891203E-16   6   5   4   1
  0.8039202397471555E-16   6   5   4   2
  0.1505745429520941E-16   6   5   4   3
  0.1137608477111894E-12   6   5   4   4
  0.2346409797727123E-17   6   5   5   1
  0.2254881114929753E-16   6   5   5   2
 -0.9714451465470120E-16   6   5   5   3
  0.1325860639356381E-16   6   5   5   4
 -0.8187946475620312E-14   6   5   5   5
  0.4237675435353443E-17   6   5   6   1
 -0.1097212598555330E-15   6   5   6   2
  0.1883076002732477E-16   6   5   6   3
  0.7109793974295213E-17   6   5   6   4
  0.8775746950507320E-02   6   5   6   5
  0.3407017786358933E+00   6   6   1   1
  0.1615539923550256E-16   6   6   2   1
  0.3343644563085957E+00   6   6   2   2
  0.1230988794940698E-16   6   6   3   1
  0.1941420308270654E-05   6   6   3   2
  0.3543357567189787E+00   6   6   3   3
 -0.2997602166487923E-13   6   6   4   1
  0.2011605227586539E-15   6   6   4   2
  0.1714466044063161E-14   6   6   4   3
  0.1610041599819300E+00   6   6   4   4
 -0.2699382607280525E-16   6   6   5   1
 -0.1179611963664229E-14   6   6   5   2
 -0.1813666946660908E-15   6   6   5   3
 -0.2404788862114428E-15   6   6   5   4
  0.2519443289590979E+00   6   6   5   5
 -0.1140973742317525E-15   6   6   6   1
 -0.4606453158370952E-15   6   6   6   2
 -0.1942890293094024E-14   6   6   6   3
 -0.5736937650848224E-15   6   6   6   4
  0.1187039426172112E-13   6   6   6   5
  0.2694958227316875E+00   6   6   6   6
 -0.3142830138104817E+01   1   1   0   0
 -0.1134573164575924E-14   2   1   0   0
 -0.3202116137756417E+01   2   2   0   0
  0.1461253890079253E-15   3   1   0   0
 -0.1836328254373722E-15   3   2   0   0
 -0.3202116137742014E+01   3   3   0   0
  0.2930988785010413E-12   4   1   0   0
 -0.2807436462809216E-14   4   2   0   0
 -0.1893246185080944E-13   4   3   0   0
 -0.8894615724695045E+00   4   4   0   0
  0.3402344908288739E-15   5   1   0   0
 -0.1820765760385257E-13   5   2   0   0
  0.1651822667363134E-14   5   3   0   0
  0.2427550353973577E-14   5   4   0   0
 -0.1836195154996254E+01   5   5   0   0
  0.1425997211925117E-14   6   1   0   0
  0.5723056035154828E-14   6   2   0   0
 -0.8659739592076221E-14   6   3   0   0
  0.5993770073693869E-14   6   4   0   0
 -0.1947769202870209E-13   6   5   0   0
 -0.1836195154819073E+01   6   6   0   0
 -0.9754820795237545E+02   0   0   0   0
