 &FCI NORB= 14,NELEC= 10,MS2= 0,
 ORBSYM=1, 1, 6, 7, 8, 6, 7, 8, 1, 1, 1, 2, 3, 4,
    ISYM=1,
 &End
   5.92946559391460                1           1           1           1
 -0.460496112874226                1           1           1           2
 -0.409026121689999                1           1           1           9
 -0.761067002915593                1           1           2           1
   1.45008415878948                1           1           2           2
  0.513563930526912                1           1           2           9
   1.41187939878412                1           1           3           3
 -0.422773812601530                1           1           3           6
  0.183287984933221                1           1           3           7
  0.375783167431311                1           1           3           8
   1.41187939878412                1           1           4           4
 -0.392266728484750                1           1           4           6
 -0.358824731477051                1           1           4           7
 -0.266302078045809                1           1           4           8
   1.41187939878412                1           1           5           5
 -0.144686862117680                1           1           5           6
  0.437259073807239                1           1           5           7
 -0.376052370383433                1           1           5           8
 -0.501941399514974                1           1           6           3
 -0.465721633672642                1           1           6           4
 -0.171780568942732                1           1           6           5
   1.17954988305355                1           1           6           6
  0.217610043312620                1           1           7           3
 -0.426017370351960                1           1           7           4
  0.519139135195888                1           1           7           5
   1.17954988305355                1           1           7           7
  0.446151401417145                1           1           8           3
 -0.316169151834489                1           1           8           4
 -0.446471014653618                1           1           8           5
   1.17954988305355                1           1           8           8
 -0.678245062551480                1           1           9           1
  0.652105858241050                1           1           9           2
   1.16386404488200                1           1           9           9
   1.25743530552403                1           1          10          10
  1.040436328955665E-008           1           1          10          13
   1.25743535724874                1           1          11          11
   1.25743535738577                1           1          12          12
  1.040436329035120E-008           1           1          13          10
   1.25743535528109                1           1          13          13
   1.25743530332563                1           1          14          14
 -0.460496112874225                1           2           1           1
  5.934813378482743E-002           1           2           1           2
  5.387317211109819E-002           1           2           1           9
  0.102212545993482                1           2           2           1
 -6.258497354910349E-002           1           2           2           2
  4.166979818674144E-003           1           2           2           9
 -5.361838698586974E-002           1           2           3           3
 -9.546099396367165E-003           1           2           3           6
  4.138584912735554E-003           1           2           3           7
  8.485065443639543E-003           1           2           3           8
 -5.361838698586967E-002           1           2           4           4
 -8.857259055287224E-003           1           2           4           6
 -8.102149306449978E-003           1           2           4           7
 -6.013016962525094E-003           1           2           4           8
 -5.361838698586972E-002           1           2           5           5
 -3.266983729726941E-003           1           2           5           6
  9.873172027477280E-003           1           2           5           7
 -8.491143961424110E-003           1           2           5           8
 -5.597076228867884E-003           1           2           6           3
 -5.193194838316760E-003           1           2           6           4
 -1.915500375023462E-003           1           2           6           5
 -6.656921960324641E-002           1           2           6           6
  2.426538240848249E-003           1           2           7           3
 -4.750458318412960E-003           1           2           7           4
  5.788845701684840E-003           1           2           7           5
 -6.656921960324647E-002           1           2           7           7
  4.974969998013669E-003           1           2           8           3
 -3.525556660088424E-003           1           2           8           4
 -4.978533959165355E-003           1           2           8           5
 -6.656921960324648E-002           1           2           8           8
  9.156943230138261E-002           1           2           9           1
 -5.156709953902383E-004           1           2           9           2
 -6.988175987911235E-002           1           2           9           9
 -4.671547811173891E-002           1           2          10          10
  3.374141408767654E-008           1           2          10          13
 -4.671531036816461E-002           1           2          11          11
 -4.671530992379003E-002           1           2          12          12
  3.374141408763679E-008           1           2          13          10
 -4.671531674926641E-002           1           2          13          13
 -4.671548524116161E-002           1           2          14          14
  1.549347123909107E-002           1           3           1           3
 -1.210937170699740E-002           1           3           1           6
  5.249857661062909E-003           1           3           1           7
  1.076343406337587E-002           1           3           1           8
  2.785864638883209E-004           1           3           2           3
 -7.736938737878915E-003           1           3           2           6
  3.354247279630268E-003           1           3           2           7
  6.876990150481268E-003           1           3           2           8
  4.749964449862952E-002           1           3           3           1
  3.163863447299430E-003           1           3           3           2
  1.420393392557574E-002           1           3           3           9
  1.226165194347088E-003           1           3           3          10
  8.438019374312619E-004           1           3           3          11
  3.920910821864861E-003           1           3           3          12
  4.598992080921363E-003           1           3           3          13
  1.503717466336854E-003           1           3           3          14
  3.676812016921223E-003           1           3           4          10
  1.783074862783104E-003           1           3           4          11
 -2.814332113187830E-003           1           3           4          12
  2.877588891330783E-004           1           3           4          13
  2.460010329874036E-003           1           3           4          14
  3.006208927672775E-003           1           3           5          10
  1.698463611963354E-003           1           3           5          11
  2.532467058100240E-003           1           3           5          12
 -2.441447646922199E-003           1           3           5          13
 -2.541079649233235E-003           1           3           5          14
 -3.827423856932611E-002           1           3           6           1
 -9.400746157532372E-003           1           3           6           2
 -2.137171445875177E-003           1           3           6           9
  3.296197454771057E-003           1           3           6          10
  1.791588055775440E-003           1           3           6          11
  1.266178764988925E-003           1           3           6          12
  2.344967601544481E-003           1           3           6          13
  1.696523352631310E-003           1           3           6          14
  1.659328901915001E-002           1           3           7           1
  4.075568941889065E-003           1           3           7           2
  9.265423640145501E-004           1           3           7           9
 -3.025409587943881E-004           1           3           7          10
 -3.543667168917880E-004           1           3           7          11
 -3.902486636572647E-003           1           3           7          12
  4.511538855159912E-004           1           3           7          13
  2.364041288749003E-003           1           3           7          14
  3.402011707418361E-002           1           3           8           1
  8.355867988977811E-003           1           3           8           2
  1.899628196772109E-003           1           3           8           9
  2.268521444707853E-003           1           3           8          10
  1.096002242421831E-003           1           3           8          11
 -1.748419513238978E-003           1           3           8          12
 -3.536129111123320E-003           1           3           8          13
 -1.190874540368965E-003           1           3           8          14
  1.561320424174647E-002           1           3           9           3
 -2.342313235358495E-003           1           3           9           6
  1.015478868829318E-003           1           3           9           7
  2.081968798594642E-003           1           3           9           8
 -1.352227680534380E-003           1           3          10           3
 -4.054599408363620E-003           1           3          10           4
 -3.315044310809229E-003           1           3          10           5
  7.442234202041332E-003           1           3          10           6
 -6.831211778280147E-004           1           3          10           7
  5.122167707031031E-003           1           3          10           8
 -9.305756778509961E-004           1           3          11           3
 -1.966426459878351E-003           1           3          11           4
 -1.873110211194321E-003           1           3          11           5
  4.044733664639611E-003           1           3          11           6
 -8.000316843288712E-004           1           3          11           7
  2.474382755190776E-003           1           3          11           8
 -4.324126247909621E-003           1           3          12           3
  3.103749840591162E-003           1           3          12           4
 -2.792895389721628E-003           1           3          12           5
  2.858534529245921E-003           1           3          12           6
 -8.810284101348860E-003           1           3          12           7
 -3.947237989946062E-003           1           3          12           8
 -5.071942409725624E-003           1           3          13           3
 -3.174119235699433E-004           1           3          13           4
  2.692451103211349E-003           1           3          13           5
  5.293879304994498E-003           1           3          13           6
  1.018560608575682E-003           1           3          13           7
 -7.983343149099048E-003           1           3          13           8
 -1.658212395208461E-003           1           3          14           3
 -2.712763691971834E-003           1           3          14           4
  2.802158670025522E-003           1           3          14           5
  3.830523554321649E-003           1           3          14           6
  5.337686684717137E-003           1           3          14           7
 -2.688844205809749E-003           1           3          14           8
  1.549347123909089E-002           1           4           1           4
 -1.123556729845683E-002           1           4           1           6
 -1.027769914219953E-002           1           4           1           7
 -7.627603113729058E-003           1           4           1           8
  2.785864638883903E-004           1           4           2           4
 -7.178646256538992E-003           1           4           2           6
 -6.566643633839294E-003           1           4           2           7
 -4.873440128497730E-003           1           4           2           8
  3.676812016921209E-003           1           4           3          10
  1.783074862783085E-003           1           4           3          11
 -2.814332113187830E-003           1           4           3          12
  2.877588891330889E-004           1           4           3          13
  2.460010329874026E-003           1           4           3          14
  4.749964449862940E-002           1           4           4           1
  3.163863447299485E-003           1           4           4           2
  1.420393392557572E-002           1           4           4           9
  2.025833840886207E-003           1           4           4          10
 -5.249283014399544E-003           1           4           4          11
 -2.016644963182299E-003           1           4           4          12
 -1.887243038867675E-003           1           4           4          13
 -1.309158636378175E-003           1           4           4          14
 -3.270955365299367E-004           1           4           5          10
 -9.212302994614768E-004           1           4           5          11
  2.209805196705853E-003           1           4           5          12
 -2.945184508397668E-003           1           4           5          13
  4.029852280539620E-003           1           4           5          14
 -3.551239433787971E-002           1           4           6           1
 -8.722394411894239E-003           1           4           6           2
 -1.982954540456883E-003           1           4           6           9
  3.166989759982053E-003           1           4           6          10
 -1.979682727711846E-003           1           4           6          11
 -2.285965037480728E-003           1           4           6          12
 -1.437631806937749E-003           1           4           6          13
  1.526609945689229E-003           1           4           6          14
 -3.248484879566386E-002           1           4           7           1
 -7.978782306556402E-003           1           4           7           2
 -1.813901304500466E-003           1           4           7           9
  2.697671868642725E-004           1           4           7          10
 -2.487453269062660E-003           1           4           7          11
 -1.615639392021356E-003           1           4           7          12
  7.677198350376740E-004           1           4           7          13
 -3.691130780838115E-003           1           4           7          14
 -2.410865801718694E-002           1           4           8           1
 -5.921460039180693E-003           1           4           8           2
 -1.346188387768331E-003           1           4           8           9
 -1.328069430930151E-003           1           4           8          10
 -3.322475149343645E-003           1           4           8          11
  1.859896509637624E-003           1           4           8          12
 -2.364571884692818E-003           1           4           8          13
  3.334818047260369E-004           1           4           8          14
  1.561320424174644E-002           1           4           9           4
 -2.173293431460929E-003           1           4           9           6
 -1.988013194433098E-003           1           4           9           7
 -1.475405674187474E-003           1           4           9           8
 -4.054599408363627E-003           1           4          10           3
 -2.233978670292272E-003           1           4          10           4
  3.607545750850929E-004           1           4          10           5
  7.150636415185377E-003           1           4          10           6
  6.090194670387084E-004           1           4          10           7
 -2.998506114999117E-003           1           4          10           8
 -1.966426459878374E-003           1           4          11           3
  5.789114161847381E-003           1           4          11           4
  1.015964545020176E-003           1           4          11           5
 -4.469306768043408E-003           1           4          11           6
 -5.615682805633957E-003           1           4          11           7
 -7.500855488860789E-003           1           4          11           8
  3.103749840591155E-003           1           4          12           3
  2.224032316611363E-003           1           4          12           4
 -2.437057027619422E-003           1           4          12           5
 -5.160808255362147E-003           1           4          12           6
 -3.647472718771157E-003           1           4          12           7
  4.198913089700883E-003           1           4          12           8
 -3.174119235699387E-004           1           4          13           3
  2.081281878194749E-003           1           4          13           4
  3.248061246956660E-003           1           4          13           5
 -3.245763857324262E-003           1           4          13           6
  1.733192990315221E-003           1           4          13           7
 -5.338222059395233E-003           1           4          13           8
 -2.712763691971825E-003           1           4          14           3
  1.443672062653169E-003           1           4          14           4
 -4.443907635146439E-003           1           4          14           5
  3.446878700722124E-003           1           4          14           6
 -8.334050159069128E-003           1           4          14           7
  7.529479751856268E-004           1           4          14           8
  1.549347123909098E-002           1           5           1           5
 -4.144218355722585E-003           1           5           1           6
  1.252426829468697E-002           1           5           1           7
 -1.077114475527468E-002           1           5           1           8
  2.785864638882238E-004           1           5           2           5
 -2.647830482905296E-003           1           5           2           6
  8.002025115535804E-003           1           5           2           7
 -6.881916677826493E-003           1           5           2           8
  3.006208927672838E-003           1           5           3          10
  1.698463611963357E-003           1           5           3          11
  2.532467058100230E-003           1           5           3          12
 -2.441447646922189E-003           1           5           3          13
 -2.541079649233238E-003           1           5           3          14
 -3.270955365299298E-004           1           5           4          10
 -9.212302994614950E-004           1           5           4          11
  2.209805196705864E-003           1           5           4          12
 -2.945184508397650E-003           1           5           4          13
  4.029852280539582E-003           1           5           4          14
  4.749964449862937E-002           1           5           5           1
  3.163863447299332E-003           1           5           5           2
  1.420393392557568E-002           1           5           5           9
 -3.251999035233297E-003           1           5           5          10
  4.405481076968240E-003           1           5           5          11
 -1.904265858682547E-003           1           5           5          12
 -2.711749042053697E-003           1           5           5          13
 -1.945588299586947E-004           1           5           5          14
 -1.309868140711619E-002           1           5           6           1
 -3.217239153788762E-003           1           5           6           2
 -7.314091391053597E-004           1           5           6           9
  9.246196569294672E-004           1           5           6          10
  1.368010739070213E-003           1           5           6          11
  2.287081368792417E-003           1           5           6          12
 -3.550116905097021E-003           1           5           6          13
  6.581330085984960E-004           1           5           6          14
  3.958560726483431E-002           1           5           7           1
  9.722838632424503E-003           1           5           7           2
  2.210396148333418E-003           1           5           7           9
  1.036916735591342E-003           1           5           7          10
 -3.534174872003429E-003           1           5           7          11
  1.598261950843853E-003           1           5           7          12
  7.932413372544449E-004           1           5           7          13
  2.747391632890579E-003           1           5           7          14
 -3.404448835193528E-002           1           5           8           1
 -8.361853952493824E-003           1           5           8           2
 -1.900989049420161E-003           1           5           8           9
 -3.356822826037244E-003           1           5           8          10
  1.063930967526898E-003           1           5           8          11
 -1.485228645091805E-003           1           5           8          12
 -1.220206876865935E-003           1           5           8          13
  2.689696267217283E-003           1           5           8          14
  1.561320424174640E-002           1           5           9           5
 -8.016152893560186E-004           1           5           9           6
  2.422566595496806E-003           1           5           9           7
 -2.083460276115112E-003           1           5           9           8
 -3.315044310809180E-003           1           5          10           3
  3.607545750850924E-004           1           5          10           4
  3.586206350826637E-003           1           5          10           5
  2.087848363190354E-003           1           5          10           6
  2.341125556804051E-003           1           5          10           7
 -7.579132263147302E-003           1           5          10           8
 -1.873110211194315E-003           1           5          11           3
  1.015964545020154E-003           1           5          11           4
 -4.858538483996408E-003           1           5          11           5
  3.088450339354185E-003           1           5          11           6
 -7.978774535188887E-003           1           5          11           7
  2.401893097794490E-003           1           5          11           8
 -2.792895389721646E-003           1           5          12           3
 -2.437057027619432E-003           1           5          12           4
  2.100093931298251E-003           1           5          12           5
  5.163331387297298E-003           1           5          12           6
  3.608243431965273E-003           1           5          12           7
 -3.353069896432382E-003           1           5          12           8
  2.692451103211360E-003           1           5          13           3
  3.248061246956670E-003           1           5          13           4
  2.990660531530843E-003           1           5          13           5
 -8.014849259099146E-003           1           5          13           6
  1.790805668977921E-003           1           5          13           7
 -2.754584113465020E-003           1           5          13           8
  2.802158670025520E-003           1           5          14           3
 -4.443907635146471E-003           1           5          14           4
  2.145403325552768E-004           1           5          14           5
  1.485950574619682E-003           1           5          14           6
  6.203240821919052E-003           1           5          14           7
  6.072952215875879E-003           1           5          14           8
 -1.210937170699740E-002           1           6           1           3
 -1.123556729845684E-002           1           6           1           4
 -4.144218355722581E-003           1           6           1           5
  1.873746509582248E-002           1           6           1           6
  5.770083502475154E-004           1           6           2           3
  5.353718019268094E-004           1           6           2           4
  1.974709055399641E-004           1           6           2           5
  9.422369636542000E-003           1           6           2           6
 -3.570829465829378E-002           1           6           3           1
 -1.353288155245616E-003           1           6           3           2
 -9.002682526539048E-003           1           6           3           9
 -4.385253488949258E-003           1           6           3          10
 -2.383241852950855E-003           1           6           3          11
 -1.684303986485020E-003           1           6           3          12
 -3.119228633415551E-003           1           6           3          13
 -2.257107895761385E-003           1           6           3          14
 -3.313160727526027E-002           1           6           4           1
 -1.255635759672091E-003           1           6           4           2
 -8.353054794339308E-003           1           6           4           9
 -4.213459175230302E-003           1           6           4          10
  2.633394212866496E-003           1           6           4          11
  3.040847651880459E-003           1           6           4          12
  1.912498556205197E-003           1           6           4          13
 -2.031047366556630E-003           1           6           4          14
 -1.222053247312072E-002           1           6           5           1
 -4.631389430642535E-004           1           6           5           2
 -3.081008914415180E-003           1           6           5           9
 -1.230285880822950E-003           1           6           5          10
 -1.819778729612677E-003           1           6           5          11
 -3.042334916494367E-003           1           6           5          12
  4.722520662615189E-003           1           6           5          13
 -8.755802014723370E-004           1           6           5          14
  5.718260470387350E-002           1           6           6           1
  1.196611685532174E-002           1           6           6           2
  3.001277644219945E-003           1           6           6           9
 -4.277939900122159E-003           1           6           6          10
 -2.761801791711371E-004           1           6           6          11
  4.709370549231347E-005           1           6           6          12
  1.331560518367147E-004           1           6           6          13
 -2.179890185489261E-003           1           6           6          14
 -1.976120700150607E-004           1           6           7          10
  2.528304213325824E-003           1           6           7          11
  3.170025464706138E-003           1           6           7          12
 -9.370200604425583E-004           1           6           7          13
  7.868258673158704E-005           1           6           7          14
  7.346800829714914E-005           1           6           8          10
  1.059564091323540E-003           1           6           8          11
  3.467587214670382E-004           1           6           8          12
  4.014423166100643E-003           1           6           8          13
 -2.549519340021685E-005           1           6           8          14
 -1.012262948476927E-002           1           6           9           3
 -9.392187106433296E-003           1           6           9           4
 -3.464290958606735E-003           1           6           9           5
  3.241944722745103E-003           1           6           9           6
  3.549114442625480E-003           1           6          10           3
  3.410059395226994E-003           1           6          10           4
  9.956780888652084E-004           1           6          10           5
 -9.620943604410992E-003           1           6          10           6
 -4.443523378468648E-004           1           6          10           7
  1.650691890744013E-004           1           6          10           8
  1.928873785648278E-003           1           6          11           3
 -2.131343861111601E-003           1           6          11           4
  1.472836220531074E-003           1           6          11           5
 -6.211032232372090E-004           1           6          11           6
  5.685534701790684E-003           1           6          11           7
  2.382691242635100E-003           1           6          11           8
  1.363192159820229E-003           1           6          12           3
 -2.461111787693718E-003           1           6          12           4
  2.462315131816748E-003           1           6          12           5
  1.059005298373362E-004           1           6          12           6
  7.128606391940302E-003           1           6          12           7
  7.797741778387277E-004           1           6          12           8
  2.524566736751499E-003           1           6          13           3
 -1.547861408799060E-003           1           6          13           4
 -3.822163912283311E-003           1           6          13           5
  2.996085055460178E-004           1           6          13           6
 -2.107132910456152E-003           1           6          13           7