  &FCI NORB=  6,NELEC=  6,MS2=  0,
  ORBSYM= 1, 1, 1, 1, 1, 1,
  ISYM=0
 &END
    0.60701052848        1    1    1    1
   -0.43798661257E-02    2    1    1    1
    0.52333796888E-02    2    1    2    1
    0.32118072436        2    2    1    1
   -0.43798937125E-02    2    2    2    1
    0.60700887554        2    2    2    2
    0.23161650841E-02    3    1    1    1
   -0.31925981055E-03    3    1    2    1
   -0.15635202985E-02    3    1    2    2
    0.19579434999E-03    3    1    3    1
   -0.36056338328E-02    3    2    1    1
   -0.47297629563E-03    3    2    2    1
   -0.43804477483E-02    3    2    2    2
   -0.31925119279E-03    3    2    3    1
    0.52331486431E-02    3    2    3    2
    0.20363337116        3    3    1    1
   -0.36054234097E-02    3    3    2    1
    0.32117597751        3    3    2    2
    0.23162768324E-02    3    3    3    1
   -0.43804477455E-02    3    3    3    2
    0.60700887552        3    3    3    3
    0.31216059102E-04    4    1    1    1
    0.52233846831E-04    4    1    2    1
    0.10729604821E-02    4    1    2    2
    0.14020000786E-04    4    1    3    1
    0.12213787381E-03    4    1    3    2
    0.10729604827E-02    4    1    3    3
    0.39844929489E-04    4    1    4    1
    0.21284923958E-02    4    2    1    1
    0.15983760237E-03    4    2    2    1
    0.23162768339E-02    4    2    2    2
    0.55494064388E-04    4    2    3    1
   -0.31925119301E-03    4    2    3    2
   -0.15635202989E-02    4    2    3    3
    0.14020000774E-04    4    2    4    1
    0.19579435004E-03    4    2    4    2
    0.41417892185E-03    4    3    1    1
    0.43118360942E-03    4    3    2    1
   -0.36054234108E-02    4    3    2    2
    0.15983760249E-03    4    3    3    1
   -0.47297629586E-03    4    3    3    2
   -0.43798937116E-02    4    3    3    3
    0.52233846836E-04    4    3    4    1
   -0.31925981066E-03    4    3    4    2
    0.52333796888E-02    4    3    4    3
    0.17803972584        4    4    1    1
    0.41417892216E-03    4    4    2    1
    0.20363337116        4    4    2    2
    0.21284923957E-02    4    4    3    1
   -0.36056338327E-02    4    4    3    2
    0.32118072436        4    4    3    3
    0.31216060503E-04    4    4    4    1
    0.23161650856E-02    4    4    4    2
   -0.43798661270E-02    4    4    4    3
    0.60701052851        4    4    4    4
    0.23161650840E-02    5    1    1    1
    0.15983039105E-03    5    1    2    1
    0.21284517666E-02    5    1    2    2
    0.21070752770E-04    5    1    3    1
   -0.29628078361E-05    5    1    3    2
    0.17410217254E-02    5    1    3    3
    0.14020000788E-04    5    1    4    1
    0.30296705312E-04    5    1    4    2
   -0.29632693533E-05    5    1    4    3
    0.21284923952E-02    5    1    4    4
    0.19579434995E-03    5    1    5    1
    0.10729989168E-02    5    2    1    1
    0.52234550990E-04    5    2    2    1
    0.31310854228E-04    5    2    2    2
    0.31653941588E-04    5    2    3    1
    0.52228814224E-04    5    2    3    2
    0.10730105963E-02    5    2    3    3
    0.13226225387E-04    5    2    4    1
    0.14024059525E-04    5    2    4    2
    0.12215111430E-03    5    2    4    3
    0.10729989161E-02    5    2    4    4
    0.14024059540E-04    5    2    5    1
    0.39850165081E-04    5    2    5    2
    0.17411875164E-02    5    3    1    1
   -0.29530315488E-05    5    3    2    1
    0.21286571525E-02    5    3    2    2
    0.21077588243E-04    5    3    3    1
    0.15983568175E-03    5    3    3    2
    0.23164898520E-02    5    3    3    3
    0.31654365176E-04    5    3    4    1
    0.55503020723E-04    5    3    4    2
   -0.31924438732E-03    5    3    4    3
   -0.15633143973E-02    5    3    4    4
    0.21077588229E-04    5    3    5    1
    0.14028643071E-04    5    3    5    2
    0.19581781299E-03    5    3    5    3
    0.41417892197E-03    5    4    1    1
    0.16813514714E-03    5    4    2    1
    0.41432752041E-03    5    4    2    2
   -0.29632693742E-05    5    4    3    1
    0.43120293664E-03    5    4    3    2
   -0.36052868573E-02    5    4    3    3
    0.52233846823E-04    5    4    4    1
    0.15983039089E-03    5    4    4    2
   -0.47297033225E-03    5    4    4    3
   -0.43798661274E-02    5    4    4    4
    0.15983760255E-03    5    4    5    1
    0.52234550989E-04    5    4    5    2
   -0.31924438725E-03    5    4    5    3
    0.52333796887E-02    5    4    5    4
    0.20363337116        5    5    1    1
    0.41432752025E-03    5    5    2    1
    0.17804336898        5    5    2    2
    0.17410217254E-02    5    5    3    1
    0.41423070031E-03    5    5    3    2
    0.20363725348        5    5    3    3
    0.10729604828E-02    5    5    4    1
    0.21284517666E-02    5    5    4    2
   -0.36052868570E-02    5    5    4    3
    0.32118072436        5    5    4    4
    0.23162768307E-02    5    5    5    1
    0.31310852652E-04    5    5    5    2
    0.23164898505E-02    5    5    5    3
   -0.43798937091E-02    5    5    5    4
    0.60700887550        5    5    5    5
   -0.43798661261E-02    6    1    1    1
   -0.47297033251E-03    6    1    2    1
   -0.36052868581E-02    6    1    2    2
    0.15983039103E-03    6    1    3    1
    0.43120293666E-03    6    1    3    2
    0.41432752014E-03    6    1    3    3
    0.52233846840E-04    6    1    4    1
   -0.29632694278E-05    6    1    4    2
    0.16813514713E-03    6    1    4    3
    0.41417892218E-03    6    1    4    4
   -0.31925981051E-03    6    1    5    1
    0.12215111430E-03    6    1    5    2
   -0.29530315403E-05    6    1    5    3
    0.43118360940E-03    6    1    5    4
   -0.36054234094E-02    6    1    5    5
    0.52333796888E-02    6    1    6    1
   -0.15633143975E-02    6    2    1    1
   -0.31924438749E-03    6    2    2    1
    0.23164898531E-02    6    2    2    2
    0.55503020732E-04    6    2    3    1
    0.15983568161E-03    6    2    3    2
    0.21286571524E-02    6    2    3    3
    0.31654365176E-04    6    2    4    1
    0.21077588256E-04    6    2    4    2
   -0.29530315982E-05    6    2    4    3
    0.17411875163E-02    6    2    4    4
    0.55503020725E-04    6    2    5    1
    0.14028643059E-04    6    2    5    2
    0.30305388619E-04    6    2    5    3
   -0.29530315970E-05    6    2    5    4
    0.21286571526E-02    6    2    5    5
   -0.31924438750E-03    6    2    6    1
    0.19581781308E-03    6    2    6    2
    0.10729989166E-02    6    3    1    1
    0.12215111429E-03    6    3    2    1
    0.10730105955E-02    6    3    2    2
    0.14024059533E-04    6    3    3    1
    0.52228814194E-04    6    3    3    2
    0.31310852483E-04    6    3    3    3
    0.13226225385E-04    6    3    4    1
    0.31653941588E-04    6    3    4    2
    0.52234550981E-04    6    3    4    3
    0.10729989159E-02    6    3    4    4
    0.31653941583E-04    6    3    5    1
    0.13228337112E-04    6    3    5    2
    0.14028643066E-04    6    3    5    3
    0.12215111429E-03    6    3    5    4
    0.10730105962E-02    6    3    5    5
    0.52234550982E-04    6    3    6    1
    0.14028643052E-04    6    3    6    2
    0.39850165072E-04    6    3    6    3
    0.21284923962E-02    6    4    1    1
   -0.29632694441E-05    6    4    2    1
    0.17410217255E-02    6    4    2    2
    0.30296705320E-04    6    4    3    1
   -0.29628078970E-05    6    4    3    2
    0.21284517668E-02    6    4    3    3
    0.14020000774E-04    6    4    4    1
    0.21070752792E-04    6    4    4    2
    0.15983039087E-03    6    4    4    3
    0.23161650861E-02    6    4    4    4
    0.55494064387E-04    6    4    5    1
    0.31653941594E-04    6    4    5    2
    0.55503020729E-04    6    4    5    3
   -0.31925981072E-03    6    4    5    4
   -0.15635202990E-02    6    4    5    5
    0.15983760231E-03    6    4    6    1
    0.21077588267E-04    6    4    6    2
    0.14024059519E-04    6    4    6    3
    0.19579435008E-03    6    4    6    4
   -0.36056338329E-02    6    5    1    1
    0.43120293668E-03    6    5    2    1
    0.41423070030E-03    6    5    2    2
   -0.29628078481E-05    6    5    3    1
    0.16814368908E-03    6    5    3    2
    0.41423070031E-03    6    5    3    3
    0.12213787380E-03    6    5    4    1
   -0.29628078806E-05    6    5    4    2
    0.43120293660E-03    6    5    4    3
   -0.36056338326E-02    6    5    4    4
   -0.31925119268E-03    6    5    5    1
    0.52228814210E-04    6    5    5    2
    0.15983568179E-03    6    5    5    3
   -0.47297629601E-03    6    5    5    4
   -0.43804477435E-02    6    5    5    5
   -0.47297629549E-03    6    5    6    1
    0.15983568157E-03    6    5    6    2
    0.52228814203E-04    6    5    6    3
   -0.31925119309E-03    6    5    6    4
    0.52331486431E-02    6    5    6    5
    0.32118072437        6    6    1    1
   -0.36052868580E-02    6    6    2    1
    0.20363725348        6    6    2    2
    0.21284517666E-02    6    6    3    1
    0.41423070025E-03    6    6    3    2
    0.17804336898        6    6    3    3
    0.10729604820E-02    6    6    4    1
    0.17410217254E-02    6    6    4    2
    0.41432752037E-03    6    6    4    3
    0.20363337116        6    6    4    4
   -0.15635202984E-02    6    6    5    1
    0.10730105956E-02    6    6    5    2
    0.21286571521E-02    6    6    5    3
   -0.36054234105E-02    6    6    5    4
    0.32117597751        6    6    5    5
   -0.43798937135E-02    6    6    6    1
    0.23164898539E-02    6    6    6    2
    0.31310854054E-04    6    6    6    3
    0.23162768353E-02    6    6    6    4
   -0.43804477499E-02    6    6    6    5
    0.60700887555        6    6    6    6
    -1.5737426724        1    1    0    0
   -0.12863935326        2    1    0    0
    -1.5737454154        2    2    0    0
    0.62802542598E-02    3    1    0    0
   -0.12863171319        3    2    0    0
    -1.5737454154        3    3    0    0
   -0.15749902283E-01    4    1    0    0
    0.62802542632E-02    4    2    0    0
   -0.12863935326        4    3    0    0
    -1.5737426724        4    4    0    0
    0.62802542601E-02    5    1    0    0
   -0.15751091589E-01    5    2    0    0
    0.62782886301E-02    5    3    0    0
   -0.12863935326        5    4    0    0
    -1.5737454154        5    5    0    0
   -0.12863935326        6    1    0    0
    0.62782886341E-02    6    2    0    0
   -0.15751091587E-01    6    3    0    0
    0.62802542624E-02    6    4    0    0
   -0.12863171319        6    5    0    0
    -1.5737454154        6    6    0    0
   -0.51877000000        1    0    0    0
   -0.46906000000        2    0    0    0
   -0.46906000000        3    0    0    0
   -0.29730000000        4    0    0    0
   -0.29730000000        5    0    0    0
   -0.22346000000        6    0    0    0
    -224.47966179        0    0    0    0
