 &FCI NORB=30,NELEC= 12,MS2=  0
  ORBSYM=1,6,1,8,7,6,1,3,4,6,1,8,7,1,3,4,6,6,0,0,8,7,6,5,1,3,4,6,1,6,
  ISYM=1 UHF=.FALSE.
  SYML=-20,-20,-20,-20,-20,-20,-20,-20,-20,-20,-20,-20,-20,-20,-20,-20,-20,-20,2,2,-20,-20,2,2,-20,-20,-20,-20,-20,-20,
  SYMLZ=-20,-20,-20,1,-20,-20,-20,1,-20,-20,-20,1,-20,-20,1,-20,-20,-20,-20,-20,1,-20,-20,-20,-20,1,-20,-20,-20,-20,
 &END
       1.999499400605  1  1  1  1
    -0.19021484796509  1  3  1  1
   -0.028832883084674  1  7  1  1
   0.0001295612631151  1 11  1  1
     0.11509707164231  1 14  1  1
   -0.052905400265208  1 25  1  1
    -0.27894107708144  1 29  1  1
      1.4989690357803  1  2  1  2
    -0.13601898811874  1  6  1  2
    0.087868133807447  1 10  1  2
    0.035593130991714  1 17  1  2
    -0.12934141759738  1 18  1  2
     0.11276092152537  1 28  1  2
     0.27690426871703  1 30  1  2
    -0.19021484796509  1  1  1  3
    0.039424600744745  1  3  1  3
  -0.0034444666739029  1  7  1  3
    0.007041406416202  1 11  1  3
    -0.01574148574373  1 14  1  3
    0.011651674035793  1 25  1  3
    0.053381044185523  1 29  1  3
    0.011203757066108  1  4  1  4
   -0.012250068931316  1 12  1  4
  -0.0044993581021878  1 21  1  4
    0.011203757066108  1  5  1  5
   -0.012250068931316  1 13  1  5
  -0.0044993581021878  1 22  1  5
    -0.13601898811874  1  2  1  6
    0.020908696056222  1  6  1  6
   -0.012947213892504  1 10  1  6
  -0.0099279511804121  1 17  1  6
    0.011949889664785  1 18  1  6
  -0.0028551726949977  1 28  1  6
   -0.045772419570264  1 30  1  6
   -0.028832883084674  1  1  1  7
  -0.0034444666739029  1  3  1  7
    0.012025484797405  1  7  1  7
  -0.0099171459304199  1 11  1  7
  -0.0085023527632693  1 14  1  7
  0.00070362678400605  1 25  1  7
   0.0066823588682889  1 29  1  7
   0.0061350409574209  1  8  1  8
    0.011667784891783  1 15  1  8
   -0.005531883152735  1 26  1  8
   0.0061350409574211  1  9  1  9
    0.011667784891783  1 16  1  9
   -0.005531883152735  1 27  1  9
    0.087868133807448  1  2  1 10
   -0.012947213892504  1  6  1 10
   0.0081561996112812  1 10  1 10
   0.0051924755530317  1 17  1 10
  -0.0088053848440975  1 18  1 10
    0.004314195450912  1 28  1 10
    0.028580346824619  1 30  1 10
  0.00012956126311514  1  1  1 11
    0.007041406416202  1  3  1 11
  -0.0099171459304199  1  7  1 11
   0.0087371914502976  1 11  1 11
   0.0049799693548853  1 14  1 11
  0.00070503308388041  1 25  1 11
  0.00040816035127589  1 29  1 11
   -0.012250068931316  1  4  1 12
    0.013499194894357  1 12  1 12
   0.0050154161053971  1 21  1 12
   -0.012250068931316  1  5  1 13
    0.013499194894357  1 13  1 13
   0.0050154161053971  1 22  1 13
     0.11509707164231  1  1  1 14
    -0.01574148574373  1  3  1 14
  -0.0085023527632693  1  7  1 14
   0.0049799693548853  1 11  1 14
    0.014844637343183  1 14  1 14
  -0.0061396432145198  1 25  1 14
   -0.030473868775137  1 29  1 14
    0.011667784891783  1  8  1 15
    0.022305602368513  1 15  1 15
   -0.010744669733465  1 26  1 15
    0.011667784891783  1  9  1 16
    0.022305602368513  1 16  1 16
   -0.010744669733465  1 27  1 16
    0.035593130991714  1  2  1 17
  -0.0099279511804122  1  6  1 17
   0.0051924755530307  1 10  1 17
    0.011654721270136  1 17  1 17
   0.0043293621503951  1 18  1 17
   -0.017628395582201  1 28  1 17
     0.02066891210123  1 30  1 17
    -0.12934141759738  1  2  1 18
    0.011949889664785  1  6  1 18
  -0.0088053848440969  1 10  1 18
   0.0043293621503956  1 17  1 18
    0.022598974226456  1 18  1 18
     -0.0307443034209  1 28  1 18
   -0.026299013984767  1 30  1 18
  0.00085738457909166  1 19  1 19
  0.00085738457909166  1 20  1 20
  -0.0044993581021878  1  4  1 21
   0.0050154161053971  1 12  1 21
   0.0031543508911207  1 21  1 21
  -0.0044993581021878  1  5  1 22
   0.0050154161053971  1 13  1 22
   0.0031543508911207  1 22  1 22
  0.00095560864715912  1 23  1 23
  0.00095560864715912  1 24  1 24
   -0.052905400265208  1  1  1 25
    0.011651674035793  1  3  1 25
  0.00070362678400604  1  7  1 25
  0.00070503308388043  1 11  1 25
  -0.0061396432145198  1 14  1 25
   0.0056163760370629  1 25  1 25
    0.017536708572003  1 29  1 25
   -0.005531883152735  1  8  1 26
   -0.010744669733465  1 15  1 26
   0.0063973792822023  1 26  1 26
   -0.005531883152735  1  9  1 27
   -0.010744669733465  1 16  1 27
   0.0063973792822023  1 27  1 27
     0.11276092152537  1  2  1 28
  -0.0028551726949977  1  6  1 28
   0.0043141954509125  1 10  1 28
     -0.0176283955822  1 17  1 28
   -0.030744303420899  1 18  1 28
    0.058350290728331  1 28  1 28
   0.0059141862826168  1 30  1 28
    -0.27894107708144  1  1  1 29
    0.053381044185523  1  3  1 29
   0.0066823588682888  1  7  1 29
  0.00040816035127576  1 11  1 29
   -0.030473868775137  1 14  1 29
    0.017536708572003  1 25  1 29
    0.085847380459073  1 29  1 29
     0.27690426871703  1  2  1 30
   -0.045772419570264  1  6  1 30
    0.028580346824619  1 10  1 30
     0.02066891210123  1 17  1 30
   -0.026299013984767  1 18  1 30
   0.0059141862826167  1 28  1 30
     0.10444313781823  1 30  1 30
      2.0031874202581  2  2  1  1
    -0.14648702057469  2  6  1  1
    0.092272359318527  2 10  1  1
    0.051242375064738  2 17  1  1
    -0.11806701438143  2 18  1  1
    0.084956449501053  2 28  1  1
      0.2900049114425  2 30  1  1
      1.4989690357803  2  1  1  2
    -0.20505856574384  2  3  1  2
  -0.0071149333797469  2  7  1  2
   -0.016971176596334  2 11  1  2
     0.10583549235736  2 14  1  2
   -0.060083992520774  2 25  1  2
    -0.27705180832826  2 29  1  2
    -0.19103667261538  2  2  1  3
    0.022577725162528  2  6  1  3
   -0.015367649779837  2 10  1  3
 -0.00083390362465426  2 17  1  3
     0.02804116547546  2 18  1  3
   -0.031874376050134  2 28  1  3
   -0.050298641524168  2 30  1  3
   0.0084600887989678  2  8  1  4
    0.016032800914457  2 15  1  4
  -0.0080179585014166  2 26  1  4
   0.0084600887989679  2  9  1  5
    0.016032800914456  2 16  1  5
  -0.0080179585014166  2 27  1  5
    -0.13601898811874  2  1  1  6
    0.023126373001173  2  3  1  6
   0.0071008450772987  2  7  1  6
  -0.0031506184670708  2 11  1  6
   -0.016999190149556  2 14  1  6
   0.0085024209640858  2 25  1  6
    0.040221573662285  2 29  1  6
   -0.028710786194847  2  2  1  7
   0.0079782120024802  2  6  1  7
  -0.0037977891511926  2 10  1  7
   -0.011811172129585  2 17  1  7
  -0.0077021890942773  2 18  1  7
    0.022215214354412  2 28  1  7
   -0.016298578638681  2 30  1  7
   0.0078484441387812  2  4  1  8
  -0.0087052125560007  2 12  1  8
  -0.0037892099383772  2 21  1  8
   0.0078484441387814  2  5  1  9
  -0.0087052125560008  2 13  1  9
  -0.0037892099383772  2 22  1  9
    0.087868133807447  2  1  1 10
   -0.015604476311724  2  3  1 10
  -0.0034116493591679  2  7  1 10
   0.0010426951694453  2 11  1 10
    0.010247591483878  2 14  1 10
  -0.0054144457337226  2 25  1 10
   -0.025964201322173  2 29  1 10
 -5.5375195824663e-05  2  2  1 11
  -0.0038595010181299  2  6  1 11
   0.0013558844271244  2 10  1 11
   0.0092460460894383  2 17  1 11
   0.0092218916712121  2 18  1 11
   -0.021640164950469  2 28  1 11
   0.0078722950616602  2 30  1 11
  -0.0092735643226892  2  8  1 12
    -0.01768191029599  2 15  1 12
   0.0089003989117855  2 26  1 12
  -0.0092735643226893  2  9  1 13
    -0.01768191029599  2 16  1 13
   0.0089003989117855  2 27  1 13
      0.1153884672996  2  2  1 14
   -0.017378093597531  2  6  1 14
    0.010417478614882  2 10  1 14
    0.010670389942048  2 17  1 14
  -0.0067313794192055  2 18  1 14
  -0.0036760118503196  2 28  1 14
     0.03701342713841  2 30  1 14
    0.014953352006437  2  4  1 15
   -0.016677133359744  2 12  1 15
  -0.0071650145568894  2 21  1 15
    0.014953352006436  2  5  1 16
   -0.016677133359744  2 13  1 16
  -0.0071650145568893  2 22  1 16
    0.035593130991714  2  1  1 17
  -0.0016829876866618  2  3  1 17
   -0.010494184286022  2  7  1 17
   0.0081857033832414  2 11  1 17
    0.010118507055826  2 14  1 17
  -0.0027820268401019  2 25  1 17
   -0.011842325030719  2 29  1 17
    -0.12934141759738  2  1  1 18
    0.027439974098847  2  3  1 18
  -0.0068035526348326  2  7  1 18
   0.0085068325501464  2 11  1 18
  -0.0070935483990691  2 14  1 18
   0.0059741737369605  2 25  1 18
    0.033338093863277  2 29  1 18
  0.00086638976862533  2 23  1 19
  0.00023508047322573  2 24  1 19
 -0.00023508047322573  2 23  1 20
  0.00086638976862533  2 24  1 20
  -0.0037066333971509  2  8  1 21
  -0.0070153783891917  2 15  1 21
   0.0023696772032247  2 26  1 21
   -0.003706633397151  2  9  1 22
  -0.0070153783891916  2 16  1 22
   0.0023696772032246  2 27  1 22
  0.00082920502896984  2 19  1 23
  -0.0002249910117483  2 20  1 23
   0.0002249910117483  2 19  1 24
  0.00082920502896984  2 20  1 24
   -0.053168059533145  2  2  1 25
   0.0081214537113373  2  6  1 25
  -0.0052462934051413  2 10  1 25
  -0.0022089343716812  2 17  1 25
   0.0063550313567134  2 18  1 25
  -0.0061893826682808  2 28  1 25
   -0.019182973134036  2 30  1 25
  -0.0073488023042866  2  4  1 26
   0.0082754436879513  2 12  1 26
   0.0024951616453555  2 21  1 26
  -0.0073488023042866  2  5  1 27
   0.0082754436879513  2 13  1 27
   0.0024951616453555  2 22  1 27
     0.11276092152537  2  1  1 28
    -0.03023595777031  2  3  1 28
    0.019715318242943  2  7  1 28
   -0.019617013844407  2 11  1 28
  -0.0026534965777046  2 14  1 28
  -0.0050527320287129  2 25  1 28
   -0.024912363631241  2 29  1 28
    -0.27999096602971  2  2  1 29
    0.040324930784825  2  6  1 29
   -0.026007726694467  2 10  1 29
   -0.012003240334786  2 17  1 29
    0.033205820725385  2 18  1 29
   -0.024593691400311  2 28  1 29
   -0.090988501212709  2 30  1 29
     0.27690426871703  2  1  1 30
   -0.050979542520007  2  3  1 30
   -0.015165600319799  2  7  1 30
   0.0069580164562255  2 11  1 30
    0.036504927225798  2 14  1 30
   -0.019666524909555  2 25  1 30
   -0.090838642300072  2 29  1 30
      1.4989690357803  2  1  2  1
    -0.20505856574384  2  3  2  1
  -0.0071149333797469  2  7  2  1
   -0.016971176596334  2 11  2  1
     0.10583549235736  2 14  2  1
   -0.060083992520774  2 25  2  1
    -0.27705180832826  2 29  2  1
      2.0068935096923  2  2  2  2
    -0.14691382093012  2  6  2  2
    0.092568620319176  2 10  2  2
     0.05122025819388  2 17  2  2
    -0.11865350252144  2 18  2  2
    0.085675910999104  2 28  2  2
     0.29097352166474  2 30  2  2
    -0.20505856574384  2  1  2  3
    0.038995793766624  2  3  2  3
   -0.002332844112324  2  7  2  3
   0.0061722631667687  2 11  2  3
   -0.016354997132629  2 14  2  3
    0.011280006202943  2 25  2  3
    0.053858909204342  2 29  2  3
     0.01010050499319  2  4  2  4
   -0.011211341181817  2 12  2  4
  -0.0046370203725314  2 21  2  4
     0.01010050499319  2  5  2  5
   -0.011211341181817  2 13  2  5
  -0.0046370203725314  2 22  2  5
    -0.14691382093012  2  2  2  6
    0.021382741060713  2  6  2  6
   -0.013174542752233  2 10  2  6
   -0.010527378224164  2 17  2  6
    0.011632562364633  2 18  2  6
   -0.001826429258596  2 28  2  6
   -0.046468329412474  2 30  2  6
   -0.007114933379747  2  1  2  7
  -0.0023328441123241  2  3  2  7
     0.01016235413054  2  7  2  7
  -0.0084183803524216  2 11  2  7
  -0.0076670517462704  2 14  2  7
   0.0014841441647135  2 25  2  7
    0.006392544182225  2 29  2  7
   0.0064614829968777  2  8  2  8
    0.012242732847529  2 15  2  8
  -0.0058743019686972  2 26  2  8
   0.0064614829968779  2  9  2  9
    0.012242732847529  2 16  2  9
  -0.0058743019686972  2 27  2  9
    0.092568620319175  2  2  2 10
   -0.013174542752233  2  6  2 10
   0.0082683181133311  2 10  2 10
   0.0054592635743424  2 17  2 10
  -0.0086839346443793  2 18  2 10
   0.0038809119840641  2 28  2 10
    0.028928237991113  2 30  2 10
   -0.016971176596334  2  1  2 11
   0.0061722631667687  2  3  2 11
  -0.0084183803524216  2  7  2 11
   0.0075278336366928  2 11  2 11
   0.0042986182873812  2 14  2 11
  5.9890761223694e-05  2 25  2 11
  0.00067233728807529  2 29  2 11
   -0.011211341181817  2  4  2 12
    0.012520320309518  2 12  2 12
    0.005158834588974  2 21  2 12
   -0.011211341181817  2  5  2 13
    0.012520320309518  2 13  2 13
    0.005158834588974  2 22  2 13
     0.10583549235736  2  1  2 14
   -0.016354997132629  2  3  2 14
  -0.0076670517462704  2  7  2 14
   0.0042986182873811  2 11  2 14
    0.014527072236469  2 14  2 14
  -0.0065283105226413  2 25  2 14
   -0.030489133130069  2 29  2 14
    0.012242732847529  2  8  2 15
    0.023318731977501  2 15  2 15
   -0.011347852054076  2 26  2 15
    0.012242732847529  2  9  2 16
    0.023318731977501  2 16  2 16
   -0.011347852054076  2 27  2 16
    0.051220258193881  2  2  2 17
   -0.010527378224164  2  6  2 17
   0.0054592635743424  2 10  2 17
    0.012539629228872  2 17  2 17
   0.0049234731564547  2 18  2 17
   -0.019288876144058  2 28  2 17
    0.021465169859711  2 30  2 17
    -0.11865350252145  2  2  2 18
    0.011632562364633  2  6  2 18
  -0.0086839346443798  2 10  2 18
   0.0049234731564552  2 17  2 18
    0.023107220058503  2 18  2 18
   -0.031989592088805  2 28  2 18
   -0.025953890728619  2 30  2 18
  0.00077566141181614  2 19  2 19
  0.00077566141181614  2 20  2 20
  -0.0046370203725314  2  4  2 21
    0.005158834588974  2 12  2 21
   0.0031105671164419  2 21  2 21
  -0.0046370203725314  2  5  2 22
    0.005158834588974  2 13  2 22
   0.0031105671164419  2 22  2 22
  0.00095815189295631  2 23  2 23
  0.00095815189295631  2 24  2 24
   -0.060083992520774  2  1  2 25
    0.011280006202943  2  3  2 25
   0.0014841441647135  2  7  2 25
  5.9890761223634e-05  2 11  2 25
  -0.0065283105226413  2 14  2 25
       0.005241342378  2 25  2 25
    0.017770504465309  2 29  2 25
  -0.0058743019686972  2  8  2 26
   -0.011347852054076  2 15  2 26
   0.0067602628600106  2 26  2 26
  -0.0058743019686972  2  9  2 27
   -0.011347852054076  2 16  2 27
   0.0067602628600106  2 27  2 27
    0.085675910999104  2  2  2 28
  -0.0018264292585959  2  6  2 28
   0.0038809119840638  2 10  2 28
   -0.019288876144058  2 17  2 28
   -0.031989592088805  2 18  2 28
    0.061615033648035  2 28  2 28
   0.0046309664177563  2 30  2 28
    -0.27705180832826  2  1  2 29
    0.053858909204342  2  3  2 29
    0.006392544182225  2  7  2 29
  0.00067233728807548  2 11  2 29
   -0.030489133130069  2 14  2 29
    0.017770504465309  2 25  2 29
    0.086219801328291  2 29  2 29
     0.29097352166474  2  2  2 30
   -0.046468329412474  2  6  2 30
    0.028928237991113  2 10  2 30
    0.021465169859711  2 17  2 30
   -0.025953890728619  2 18  2 30
   0.0046309664177564  2 28  2 30
     0.10554352855928  2 30  2 30
    -0.19021484796509  3  1  1  1
     0.78079286218941  3  3  1  1
    -0.12293340374155  3  7  1  1
    0.094731556417861  3 11  1  1
    -0.10816690916539  3 14  1  1
    0.069666129497523  3 25  1  1
     0.16391492719063  3 29  1  1
    -0.20505856574384  3  2  1  2
     0.13400719836241  3  6  1  2
   -0.078617778984555  3 10  1  2
    0.014002082502424  3 17  1  2
     0.17415477424146  3 18  1  2
    -0.16177065372829  3 28  1  2
     -0.1276713802557  3 30  1  2
    0.039424600744745  3  1  1  3
   0.0030565221450334  3  3  1  3
  -0.0079997741804464  3  7  1  3
   0.0034973240163216  3 11  1  3
      0.0038689233888  3 14  1  3
   0.0026534896341714  3 25  1  3
   -0.015779011359991  3 29  1  3
    0.018322023417407  3  4  1  4
  -0.0096980317316543  3 12  1  4
   0.0065493257525895  3 21  1  4
    0.018322023417407  3  5  1  5
  -0.0096980317316543  3 13  1  5
   0.0065493257525895  3 22  1  5
    0.023126373001173  3  2  1  6
  -0.0019046871129665  3  6  1  6
   0.0025270962553102  3 10  1  6
  -0.0020057911879989  3 17  1  6
  -0.0077663210315912  3 18  1  6
    0.010789317454722  3 28  1  6
    0.011824765850588  3 30  1  6
  -0.0034444666739029  3  1  1  7
   -0.026852389622543  3  3  1  7
    0.016606228516377  3  7  1  7
   -0.010680821264448  3 11  1  7
   0.0011318296494471  3 14  1  7
    -0.01080971625845  3 25  1  7
  -0.0035393106878036  3 29  1  7
   0.0057587307169076  3  8  1  8
    0.006715131416018  3 15  1  8
  -0.0041005740163293  3 26  1  8
   0.0057587307169077  3  9  1  9
    0.006715131416018  3 16  1  9
  -0.0041005740163293  3 27  1  9
   -0.015604476311724  3  2  1 10
   0.0017736523107429  3  6  1 10
  -0.0016516864413914  3 10  1 10
  0.00079982649589001  3 17  1 10
    0.004229295996269  3 18  1 10
  -0.0060156422065862  3 28  1 10
  -0.0072726813128301  3 30  1 10
    0.007041406416202  3  1  1 11
    0.019590817240103  3  3  1 11
   -0.012912715666004  3  7  1 11
   0.0084665534849812  3 11  1 11
 -0.00048302623517098  3 14  1 11
   0.0088211178750975  3 25  1 11
   0.0011022583001338  3 29  1 11
   -0.017760104491559  3  4  1 12
   0.0097128777632686  3 12  1 12
   -0.006366110177962  3 21  1 12
   -0.017760104491559  3  5  1 13
   0.0097128777632686  3 13  1 13
   -0.006366110177962  3 22  1 13
    -0.01574148574373  3  1  1 14
    0.019196596091909  3  3  1 14
  -0.0091137418993759  3  7  1 14
   0.0065097892644035  3 11  1 14
  -0.0024780558189838  3 14  1 14
   0.0067041519934069  3 25  1 14
    0.010342199661953  3 29  1 14
   0.0099071401053192  3  8  1 15
    0.011813038162759  3 15  1 15
  -0.0075136914836153  3 26  1 15
   0.0099071401053193  3  9  1 16
    0.011813038162759  3 16  1 16
  -0.0075136914836153  3 27  1 16
  -0.0016829876866619  3  2  1 17
  -0.0027485803539057  3  6  1 17
 -0.00016988301092024  3 10  1 17
   0.0034864001800533  3 17  1 17
    0.005787933153756  3 18  1 17
  -0.0086787813162278  3 28  1 17
  -0.0049177541395835  3 30  1 17
    0.027439974098847  3  2  1 18
  -0.0067496355561382  3  6  1 18
   0.0028145427904071  3 10  1 18
   0.0026947448324784  3 17  1 18
 -0.00085063416852175  3 18  1 18
   0.0017087989373862  3 28  1 18
   0.0073533373671648  3 30  1 18
   0.0037790009473611  3 19  1 19
   0.0037790009473611  3 20  1 20
  -0.0025997208605287  3  4  1 21
  0.00076450450510561  3 12  1 21
   0.0027839080800491  3 21  1 21
  -0.0025997208605287  3  5  1 22
  0.00076450450510561  3 13  1 22
   0.0027839080800491  3 22  1 22
   0.0028981112747833  3 23  1 23
   0.0028981112747833  3 24  1 24
    0.011651674035793  3  1  1 25
   0.0026223294604804  3  3  1 25
  -0.0040072505954697  3  7  1 25
   0.0035670239497178  3 11  1 25
  0.00062224539123551  3 14  1 25
   0.0049997297880573  3 25  1 25
  -0.0046182292086413  3 29  1 25
  -0.0044380736404331  3  8  1 26
  -0.0060390733140625  3 15  1 26
   0.0061794275237555  3 26  1 26
  -0.0044380736404331  3  9  1 27
  -0.0060390733140624  3 16  1 27
   0.0061794275237555  3 27  1 27
   -0.030235957770309  3  2  1 28
    0.010305415675952  3  6  1 28
  -0.0038126355590258  3 10  1 28
  -0.0058681672862433  3 17  1 28
  -0.0021715890055011  3 18  1 28
   0.0085962928691036  3 28  1 28
  -0.0034012465914367  3 30  1 28
    0.053381044185524  3  1  1 29
   -0.018141621838215  3  3  1 29
   0.0039677748963083  3  7  1 29
  -0.0043242114581304  3 11  1 29
   0.0053455820050489  3 14  1 29
  -0.0072774451469099  3 25  1 29
   -0.021328551810357  3 29  1 29
   -0.050979542520007  3  2  1 30
   0.0052206418104474  3  6  1 30
  -0.0050991985908308  3 10  1 30
   0.0026034080974037  3 17  1 30
    0.012317176484161  3 18  1 30
   -0.016474676609434  3 28  1 30
   -0.023228528941564  3 30  1 30
    -0.20505856574384  3  2  2  1
     0.13400719836241  3  6  2  1
   -0.078617778984555  3 10  2  1
    0.014002082502424  3 17  2  1
     0.17415477424146  3 18  2  1
    -0.16177065372829  3 28  2  1
     -0.1276713802557  3 30  2  1
    -0.19103667261538  3  1  2  2
      0.7804466484869  3  3  2  2
    -0.12258349022778  3  7  2  2
    0.094519808064408  3 11  2  2
     -0.1082267747604  3 14  2  2
    0.069433990990952  3 25  2  2
      0.1642250851516  3 29  2  2
    0.038995793766624  3  2  2  3
   -0.010006248511987  3  6  2  3
   0.0056168648632357  3 10  2  3
   0.0013483606531981  3 17  2  3
  -0.0082170735459896  3 18  2  3
   0.0080387634779782  3 28  2  3
    0.014723427793924  3 30  2  3
   0.0073687311521764  3  8  2  4
   0.0087987168344361  3 15  2  4
  -0.0059310450729832  3 26  2  4
   0.0073687311521764  3  9  2  5
    0.008798716834436  3 16  2  5
  -0.0059310450729831  3 27  2  5
    0.022577725162528  3  1  2  6
   -0.020861202876958  3  3  2  6
   0.0090545675420418  3  7  2  6
  -0.0068226772381515  3 11  2  6
   0.0033737627393218  3 14  2  6
  -0.0075717785311578  3 25  2  6
    -0.01290214458182  3 29  2  6
  -0.0023328441123241  3  2  2  7
   0.0047632330978948  3  6  2  7
 -0.00096649156616217  3 10  2  7
  -0.0034467213013248  3 17  2  7
  -0.0036405086348232  3 18  2  7
   0.0071450673812232  3 28  2  7
   0.0030357123961308  3 30  2  7
    0.012607207947256  3  4  2  8
  -0.0065437234193724  3 12  2  8
   0.0034926704986693  3 21  2  8
    0.012607207947256  3  5  2  9
  -0.0065437234193725  3 13  2  9
   0.0034926704986693  3 22  2  9
   -0.015367649779837  3  1  2 10
    0.010189626424984  3  3  2 10
  -0.0038627060833676  3  7  2 10
   0.0032399722185047  3 11  2 10
  -0.0020643736469862  3 14  2 10
   0.0039289115163794  3 25  2 10
   0.0079066685591082  3 29  2 10
   0.0061722631667687  3  2  2 11
  -0.0043935194328542  3  6  2 11
   0.0013300059385299  3 10  2 11
   0.0026387072816919  3 17  2 11
   0.0016378337570696  3 18  2 11
  -0.0046525712974291  3 28  2 11
 -0.00077441049020974  3 30  2 11
   -0.007295802908221  3  8  2 12
   -0.008883274925094  3 15  2 12
   0.0061154169149316  3 26  2 12
  -0.0072958029082211  3  9  2 13
  -0.0088832749250939  3 16  2 13
   0.0061154169149316  3 27  2 13
   -0.016354997132629  3  2  2 14
  0.00096145119989537  3  6  2 14
  -0.0019573739191809  3 10  2 14
   0.0023171674892547  3 17  2 14
   0.0072263578780126  3 18  2 14
   -0.009874926889427  3 28  2 14
  -0.0094244966302574  3 30  2 14
    0.021978959256111  3  4  2 15
   -0.011712454707801  3 12  2 15
   0.0064577358547591  3 21  2 15
    0.021978959256111  3  5  2 16
   -0.011712454707801  3 13  2 16
    0.006457735854759  3 22  2 16
 -0.00083390362465439  3  1  2 17
    0.023395704923826  3  3  2 17
   -0.013804496205838  3  7  2 17
   0.0089218458628028  3 11  2 17
  -0.0012457017685024  3 14  2 17
   0.0085210731052462  3 25  2 17
    0.005500693108279  3 29  2 17
     0.02804116547546  3  1  2 18
    0.010040832919327  3  3  2 18
  -0.0097839290596542  3  7  2 18
   0.0045756945768396  3 11  2 18
   0.0023057647839417  3 14  2 18
   0.0028113201120728  3 25  2 18
  -0.0084236305337224  3 29  2 18
     0.00253544246037  3 23  2 19
  0.00068795019863416  3 24  2 19
 -0.00068795019863416  3 23  2 20
     0.00253544246037  3 24  2 20
  -0.0029256674167269  3  8  2 21
   -0.002865048747479  3 15  2 21
 -0.00012379532938183  3 26  2 21
  -0.0029256674167269  3  9  2 22
  -0.0028650487474789  3 16  2 22
 -0.00012379532938184  3 27  2 22
   0.0033681527042419  3 19  2 23
  -0.0009138922922255  3 20  2 23
  0.00091389229222551  3 19  2 24
   0.0033681527042419  3 20  2 24
    0.011280006202943  3  2  2 25
  -0.0034752014456922  3  6  2 25
   0.0024480193130824  3 10  2 25
   3.551697737515e-05  3 17  2 25
  -0.0042940829546146  3 18  2 25
  0.00063492413063909  3 28  2 25
   0.0051652319567593  3 30  2 25
   -0.012187816624033  3  4  2 26
   0.0072491429203059  3 12  2 26
  -0.0065358070867399  3 21  2 26
   -0.012187816624032  3  5  2 27
   0.0072491429203059  3 13  2 27
  -0.0065358070867399  3 22  2 27
   -0.031874376050134  3  1  2 28
   -0.033301862059326  3  3  2 28
    0.024749929502106  3  7  2 28
   -0.015735372273435  3 11  2 28
 -0.00099247861318522  3 14  2 28
   -0.016118884664444  3 25  2 28
   0.0041241476320483  3 29  2 28
    0.053858909204342  3  2  2 29
  -0.0071307890945409  3  6  2 29
   0.0052367238847027  3 10  2 29
   -0.000691340914339  3 17  2 29
  -0.0098787294467467  3 18  2 29
    0.013363419056728  3 28  2 29
    0.020969855423913  3 30  2 29
   -0.050298641524168  3  1  2 30
    0.030538906681986  3  3  2 30
   -0.011553614400882  3  7  2 30
    0.009076354985038  3 11  2 30
  -0.0058115078187656  3 14  2 30
    0.012032870593524  3 25  2 30
     0.02384042166027  3 29  2 30
    0.039424600744745  3  1  3  1
   0.0030565221450334  3  3  3  1
  -0.0079997741804464  3  7  3  1
   0.0034973240163216  3 11  3  1
      0.0038689233888  3 14  3  1
   0.0026534896341714  3 25  3  1
   -0.015779011359991  3 29  3  1
    0.038995793766624  3  2  3  2
   -0.010006248511987  3  6  3  2
   0.0056168648632357  3 10  3  2
   0.0013483606531981  3 17  3  2
  -0.0082170735459896  3 18  3  2
   0.0080387634779782  3 28  3  2
    0.014723427793924  3 30  3  2
   0.0030565221450333  3  1  3  3
     0.71881517242212  3  3  3  3
    -0.13686328602379  3  7  3  3
    0.078068386788367  3 11  3  3
   -0.064750731074525  3 14  3  3
    0.060583526817323  3 25  3  3
    0.026854518252099  3 29  3  3
     0.10345660682284  3  4  3  4
   -0.037917846411971  3 12  3  4
    0.051550479031308  3 21  3  4
     0.10345660682284  3  5  3  5
   -0.037917846411971  3 13  3  5
    0.051550479031308  3 22  3  5
   -0.010006248511987  3  2  3  6
    0.045658324679824  3  6  3  6
   -0.020782822085519  3 10  3  6
   0.0038326125253789  3 17  3  6
    0.038533513667687  3 18  3  6
   -0.019725741492407  3 28  3  6
  -0.0062699179528834  3 30  3  6
  -0.0079997741804464  3  1  3  7
    -0.13686328602379  3  3  3  7
    0.066641598576969  3  7  3  7
   -0.040436428044168  3 11  3  7
    0.014614353882658  3 14  3  7
   -0.039781847281134  3 25  3  7
  -0.0085285887993473  3 29  3  7
    0.021900760985667  3  8  3  8
    0.017590183720535  3 15  3  8
   -0.011362108988736  3 26  3  8
    0.021900760985667  3  9  3  9
    0.017590183720535  3 16  3  9
   -0.011362108988736  3 27  3  9
   0.0056168648632355  3  2  3 10
   -0.020782822085519  3  6  3 10
    0.012990646438965  3 10  3 10
  -0.0032181544819518  3 17  3 10
   -0.025684625116637  3 18  3 10
     0.01279357005054  3 28  3 10
   0.0056307819550851  3 30  3 10
   0.0034973240163216  3  1  3 11
    0.078068386788367  3  3  3 11
   -0.040436428044168  3  7  3 11
    0.036252411827669  3 11  3 11
   -0.015080939886878  3 14  3 11
     0.03474234839649  3 25  3 11
    0.014228555097061  3 29  3 11
   -0.037917846411971  3  4  3 12
    0.026571908163954  3 12  3 12
   -0.025856099698521  3 21  3 12
   -0.037917846411971  3  5  3 13
    0.026571908163954  3 13  3 13
   -0.025856099698521  3 22  3 13
      0.0038689233888  3  1  3 14
   -0.064750731074525  3  3  3 14
    0.014614353882658  3  7  3 14
   -0.015080939886878  3 11  3 14
    0.017798936948841  3 14  3 14
  -0.0086982565936423  3 25  3 14
   -0.012192194807596  3 29  3 14
    0.017590183720535  3  8  3 15
    0.020533791725384  3 15  3 15
   -0.015014726738781  3 26  3 15
    0.017590183720535  3  9  3 16
    0.020533791725384  3 16  3 16
    -0.01501472673878  3 27  3 16
   0.0013483606531979  3  2  3 17
   0.0038326125253791  3  6  3 17
  -0.0032181544819453  3 10  3 17
   0.0071283250896126  3 17  3 17
    0.010974383970241  3 18  3 17
  -0.0082373729376996  3 28  3 17
 -0.00098333618414818  3 30  3 17
  -0.0082170735459899  3  2  3 18
    0.038533513667687  3  6  3 18
   -0.025684625116641  3 10  3 18
    0.010974383970239  3 17  3 18
    0.065907675258382  3 18  3 18
   -0.043405990112376  3 28  3 18
   -0.017844114421932  3 30  3 18
    0.045436887395156  3 19  3 19
    0.045436887395156  3 20  3 20
    0.051550479031308  3  4  3 21
   -0.025856099698521  3 12  3 21
    0.051335191649687  3 21  3 21
    0.051550479031308  3  5  3 22
   -0.025856099698521  3 13  3 22
    0.051335191649687  3 22  3 22
    0.023302734882882  3 23  3 23
    0.023302734882882  3 24  3 24
   0.0026534896341713  3  1  3 25
    0.060583526817323  3  3  3 25
   -0.039781847281134  3  7  3 25
     0.03474234839649  3 11  3 25
  -0.0086982565936424  3 14  3 25
    0.046330939141367  3 25  3 25
   0.0095126310956377  3 29  3 25
   -0.011362108988736  3  8  3 26
   -0.015014726738781  3 15  3 26
    0.022985392888614  3 26  3 26
   -0.011362108988736  3  9  3 27
    -0.01501472673878  3 16  3 27
    0.022985392888614  3 27  3 27
   0.0080387634779782  3  2  3 28
   -0.019725741492407  3  6  3 28
    0.012793570050541  3 10  3 28
  -0.0082373729377004  3 17  3 28
   -0.043405990112376  3 18  3 28
    0.054481932392363  3 28  3 28
    0.021871885129571  3 30  3 28
   -0.015779011359991  3  1  3 29
    0.026854518252099  3  3  3 29
   -0.008528588799347  3  7  3 29
    0.014228555097061  3 11  3 29
   -0.012192194807596  3 14  3 29
   0.0095126310956373  3 25  3 29
    0.034720386176772  3 29  3 29
    0.014723427793924  3  2  3 30
  -0.0062699179528836  3  6  3 30
   0.0056307819550845  3 10  3 30
 -0.00098333618415075  3 17  3 30
    -0.01784411442193  3 18  3 30
    0.021871885129569  3 28  3 30
    0.018651491259736  3 30  3 30
     0.63253926222304  4  4  1  1
    -0.20639838871753  4 12  1  1
    0.008567929379997  4 21  1  1
      0.1574944262403  4  8  1  2
     0.18209286611165  4 15  1  2
   -0.058303194476085  4 26  1  2
  0.00070301219271504  4  4  1  3
   0.0019656193920258  4 12  1  3
   0.0095267684331446  4 21  1  3
    0.011203757066108  4  1  1  4
    0.018322023417407  4  3  1  4
  0.00092606128485133  4  7  1  4
  -0.0020823768011972  4 11  1  4
  -0.0036903543662671  4 14  1  4
   -0.012561784586787  4 19  1  4
   0.0033373853324156  4 20  1  4
  -0.0049827412341877  4 25  1  4
   0.0064152041738908  4 29  1  4
   0.0033373853324157  4 19  1  5
    0.012561784586787  4 20  1  5
  0.00034566303417492  4  8  1  6
  -0.0029249165052723  4 15  1  6
   0.0052496011052613  4 26  1  6
   -0.010330682296874  4  4  1  7
   0.0064748410153919  4 12  1  7
   -0.012457540485088  4 21  1  7
   0.0078484441387812  4  2  1  8
   0.0067730645298498  4  6  1  8
  -0.0040826576719452  4 10  1  8
 -0.00036273935456752  4 17  1  8
   0.0070425767767167  4 18  1  8
   -0.006554123239671  4 23  1  8
 -3.4575973046083e-05  4 24  1  8
  -0.0011431934519429  4 28  1  8
  -0.0046269904629535  4 30  1  8