 &FCI NORB= 28,NELEC=4,MS2= 0,
  ORBSYM=1,1,1,1,1,1,1,2,2,2,3,3,3,4,5,5,5,5,5,5,5,6,6,6,7,7,7,8,
  ISYM=1
 &END
       0.782540804026  1  1  1  1
      -0.146109533276  2  1  1  1
      0.0586569663555  2  1  2  1
       0.472175505700  2  2  1  1
     -0.0400563056399  2  2  2  1
       0.378076584469  2  2  2  2
     -0.0405366281759  3  1  1  1
      0.0145303240912  3  1  2  1
     -0.0196386060820  3  1  2  2
      0.0924883538873  3  1  3  1
      0.0206930495409  3  2  1  1
    -0.00871155455041  3  2  2  1
     0.00493693807512  3  2  2  2
     -0.0143028678654  3  2  3  1
      0.0136419631623  3  2  3  2
       0.672283478891  3  3  1  1
     -0.0962514786831  3  3  2  1
       0.439942266043  3  3  2  2
     -0.0240078627348  3  3  3  1
      0.0265155698817  3  3  3  2
       0.658721177990  3  3  3  3
      0.0944161806430  4  1  1  1
     -0.0500255787083  4  1  2  1
      0.0223706605491  4  1  2  2
      0.0262692066437  4  1  3  1
    -0.00992736364517  4  1  3  2
      0.0162598266035  4  1  3  3
       0.110597944465  4  1  4  1
      -0.109608035283  4  2  1  1
      0.0385371337514  4  2  2  1
     -0.0343555768999  4  2  2  2
     -0.0159132878775  4  2  3  1
    6.13292714037E-05  4  2  3  2
     -0.0691209911249  4  2  3  3
     -0.0562071797119  4  2  4  1
      0.0422184105548  4  2  4  2
      0.0953353926723  4  3  1  1
     -0.0369304744312  4  3  2  1
      0.0312022100847  4  3  2  2
     -0.0541637648627  4  3  3  1
     0.00440779610435  4  3  3  2
      0.0541064988330  4  3  3  3
      0.0224841747061  4  3  4  1
     -0.0141725026226  4  3  4  2
      0.0590976918257  4  3  4  3
       0.794405522564  4  4  1  1
      -0.160749564712  4  4  2  1
       0.469869567973  4  4  2  2
    -0.00452004889642  4  4  3  1
      0.0113989377009  4  4  3  2
       0.653742269124  4  4  3  3
       0.172628767219  4  4  4  1
      -0.146958154620  4  4  4  2
      0.0955063048018  4  4  4  3
       0.899075266475  4  4  4  4
      0.0344527547707  5  1  1  1
     -0.0213161814670  5  1  2  1
     0.00930934194092  5  1  2  2
     -0.0294740551745  5  1  3  1
      0.0187536603477  5  1  3  2
      0.0463170943561  5  1  3  3
     0.00125268502314  5  1  4  1
    -0.00130075459718  5  1  4  2
      0.0161060902072  5  1  4  3
      0.0334766916613  5  1  4  4
      0.0612755603907  5  1  5  1
     -0.0589741487932  5  2  1  1
      0.0217923055382  5  2  2  1
     -0.0211892975943  5  2  2  2
      0.0329301693275  5  2  3  1
    -0.00992562593297  5  2  3  2
     -0.0481678755114  5  2  3  3
    -0.00207886091962  5  2  4  1
     0.00540999950800  5  2  4  2
     -0.0251781538425  5  2  4  3
     -0.0509607431766  5  2  4  4
     -0.0293847071915  5  2  5  1
      0.0233171431944  5  2  5  2
     -0.0847047840372  5  3  1  1
      0.0382634428102  5  3  2  1
     -0.0277660853456  5  3  2  2
      0.0710610896072  5  3  3  1
     -0.0168165990451  5  3  3  2
     -0.0436300069944  5  3  3  3
    -0.00602939395443  5  3  4  1
     0.00279998598135  5  3  4  2
     -0.0569440315652  5  3  4  3
     -0.0645427479177  5  3  4  4
     -0.0356625080394  5  3  5  1
      0.0373211274426  5  3  5  2
      0.0923355995287  5  3  5  3
     -0.0141813153715  5  4  1  1
     0.00655944055226  5  4  2  1
    -0.00281846007360  5  4  2  2
   -3.91966834834E-05  5  4  3  1
    -0.00852903480971  5  4  3  2
     -0.0358821223404  5  4  3  3
     0.00917688643232  5  4  4  1
    -0.00171683991895  5  4  4  2
   -0.000608998120560  5  4  4  3
    -0.00817113644943  5  4  4  4
     -0.0214531212214  5  4  5  1
     0.00629918060915  5  4  5  2
     0.00567176962534  5  4  5  3
      0.0219180749110  5  4  5  4
       0.780119406369  5  5  1  1
      -0.144690588006  5  5  2  1
       0.472374229549  5  5  2  2
     -0.0754455032775  5  5  3  1
      0.0429986974431  5  5  3  2
       0.711478257397  5  5  3  3
      0.0379938898283  5  5  4  1
     -0.0835016658251  5  5  4  2
      0.0966159531770  5  5  4  3
       0.744318132082  5  5  4  4
      0.0815923885040  5  5  5  1
     -0.0847805314855  5  5  5  2
      -0.121803239638  5  5  5  3
     -0.0396548464096  5  5  5  4
       0.871498620028  5  5  5  5
      0.0429494223960  6  1  6  1
    -0.00920176763070  6  2  6  1
     0.00400484629099  6  2  6  2
    4.09581508655E-06  6  3  6  1
    0.000346212157954  6  3  6  2
      0.0141536701581  6  3  6  3
     -0.0145262464201  6  4  6  1
    0.000142523493153  6  4  6  2
     0.00154517953477  6  4  6  3
      0.0123599423411  6  4  6  4
     -0.0323525215725  6  5  6  1
     0.00583728136766  6  5  6  2
    -0.00326334039952  6  5  6  3
      0.0116991949829  6  5  6  4
      0.0331312001252  6  5  6  5
       0.731371364344  6  6  1  1
      -0.115267758608  6  6  2  1
       0.457473192540  6  6  2  2
     -0.0289093480919  6  6  3  1
      0.0151185821364  6  6  3  2
       0.641133036598  6  6  3  3
      0.0424814836201  6  6  4  1
     -0.0852831161023  6  6  4  2
      0.0707561630235  6  6  4  3
       0.702282060218  6  6  4  4
     -0.0110236017469  6  6  5  1
     -0.0385569739072  6  6  5  2
     -0.0623008391622  6  6  5  3
    -0.00182502105558  6  6  5  4
       0.731109510902  6  6  5  5
       0.762678225665  6  6  6  6
     -0.0222182744184  7  1  1  1
      0.0140584540341  7  1  2  1
    -0.00829514387068  7  1  2  2
      0.0370366559369  7  1  3  1
     -0.0143580648348  7  1  3  2
      0.0110606865546  7  1  3  3
    -0.00692091458757  7  1  4  1
     0.00340895309231  7  1  4  2
    -0.00670560742084  7  1  4  3
     -0.0136787270361  7  1  4  4
     -0.0158248130336  7  1  5  1
      0.0145369595875  7  1  5  2
      0.0332258654257  7  1  5  3
     -0.0111510288462  7  1  5  4
     -0.0348926706004  7  1  5  5
     -0.0165663567245  7  1  6  6
      0.0679305930943  7  1  7  1
      0.0327886691280  7  2  1  1
     -0.0137161211950  7  2  2  1
      0.0132071639877  7  2  2  2
     -0.0329473836817  7  2  3  1
     0.00431493655414  7  2  3  2
     0.00794486807080  7  2  3  3
     0.00654639411061  7  2  4  1
    -0.00289542006652  7  2  4  2
      0.0169232970104  7  2  4  3
      0.0249718625326  7  2  4  4
      0.0106875031606  7  2  5  1
     -0.0135424386079  7  2  5  2
     -0.0265657039634  7  2  5  3
     0.00707774411064  7  2  5  4
      0.0384619338844  7  2  5  5
      0.0247867053024  7  2  6  6
     -0.0339006552550  7  2  7  1
      0.0234883367667  7  2  7  2
      0.0648197525011  7  3  1  1
     -0.0290332334173  7  3  2  1
      0.0131356947687  7  3  2  2
      0.0412232121838  7  3  3  1
    -0.00732521902900  7  3  3  2
      0.0423092499264  7  3  3  3
      0.0447845908444  7  3  4  1
     -0.0278676828268  7  3  4  2
    -0.00321250252709  7  3  4  3
      0.0830346122626  7  3  4  4
     0.00310387258715  7  3  5  1
    0.000557413321413  7  3  5  2
      0.0157495554128  7  3  5  3
    -0.00344264097019  7  3  5  4
      0.0494230955681  7  3  5  5
      0.0472791827732  7  3  6  6
      0.0221578649331  7  3  7  1
     -0.0105686095366  7  3  7  2
      0.0584460254380  7  3  7  3
     -0.0428909969451  7  4  1  1
      0.0178563170354  7  4  2  1
     -0.0155110764624  7  4  2  2
      0.0468581451362  7  4  3  1
     -0.0110885268943  7  4  3  2
     -0.0242446710343  7  4  3  3
    0.000587119773617  7  4  4  1
     0.00158269583477  7  4  4  2
     -0.0212790853147  7  4  4  3
     -0.0307971205736  7  4  4  4
     -0.0242444091294  7  4  5  1
      0.0209402013833  7  4  5  2
      0.0352950541201  7  4  5  3
    -0.00395647404203  7  4  5  4
     -0.0603137384048  7  4  5  5
     -0.0285485106333  7  4  6  6
      0.0453931852050  7  4  7  1
     -0.0303310006483  7  4  7  2
      0.0201150632943  7  4  7  3
      0.0530869754740  7  4  7  4
     -0.0250860197545  7  5  1  1
      0.0145439072193  7  5  2  1
    -0.00911681874283  7  5  2  2
      0.0230461024482  7  5  3  1
    -0.00668501519654  7  5  3  2
     0.00118037192331  7  5  3  3
     -0.0184622930774  7  5  4  1
     0.00863607709896  7  5  4  2
     -0.0121408457568  7  5  4  3
     -0.0294423338984  7  5  4  4
     -0.0166143460474  7  5  5  1
      0.0127232354903  7  5  5  2
      0.0265186774095  7  5  5  3
    -0.00677547379052  7  5  5  4
     -0.0264319162909  7  5  5  5
    -0.00542029681991  7  5  6  6
      0.0350488903519  7  5  7  1
     -0.0199448396472  7  5  7  2
     0.00716821467776  7  5  7  3
      0.0224749027564  7  5  7  4
      0.0337325691007  7  5  7  5
    -0.00721272656572  7  6  6  1
     0.00204959282247  7  6  6  2
     0.00119091236588  7  6  6  3
     0.00169879505093  7  6  6  4
     0.00679998357293  7  6  6  5
     0.00796438785401  7  6  7  6
       0.821384803223  7  7  1  1
      -0.165242398287  7  7  2  1
       0.478213089998  7  7  2  2
     0.00170514295295  7  7  3  1
      0.0155650291295  7  7  3  2
       0.715434721157  7  7  3  3
       0.127127971551  7  7  4  1
      -0.130463516256  7  7  4  2
      0.0874188678683  7  7  4  3
       0.847405164094  7  7  4  4
      0.0547280617362  7  7  5  1
     -0.0609779704302  7  7  5  2
     -0.0587902749102  7  7  5  3
     -0.0218497547673  7  7  5  4
       0.810449029111  7  7  5  5
       0.738072854912  7  7  6  6
      0.0124292059793  7  7  7  1
      0.0155750284740  7  7  7  2
       0.123542569912  7  7  7  3
     -0.0197931835123  7  7  7  4
     -0.0163967567186  7  7  7  5
       0.952415852915  7  7  7  7
      0.0881011518203  8  1  8  1
      0.0133170718948  8  2  8  1
      0.0156124726749  8  2  8  2
     -0.0257362604061  8  3  8  1
    -0.00177913127399  8  3  8  2
      0.0414865724931  8  3  8  3
     -0.0464477347291  8  4  8  1
     -0.0100660170068  8  4  8  2
      0.0149866443188  8  4  8  3
      0.0309658019778  8  4  8  4
     -0.0381787060975  8  5  8  1
    -0.00800187669544  8  5  8  2
     0.00534474797879  8  5  8  3
      0.0190780474960  8  5  8  4
      0.0310944315083  8  5  8  5
      0.0684299774459  8  6  8  1
     0.00875270196023  8  6  8  2
     -0.0156285471655  8  6  8  3
     -0.0362324483891  8  6  8  4
     -0.0344285342358  8  6  8  5
      0.0698288210270  8  6  8  6
     0.00284533176118  8  7  8  1
     0.00144540071178  8  7  8  2
     -0.0102166712700  8  7  8  3
    -0.00320170633645  8  7  8  4
     0.00175802522243  8  7  8  5
   -0.000198910530217  8  7  8  6
      0.0102395452709  8  7  8  7
       0.642690971606  8  8  1  1
     -0.0780546861478  8  8  2  1
       0.439572405844  8  8  2  2
     -0.0484802792388  8  8  3  1
      0.0141678048223  8  8  3  2
       0.593180957933  8  8  3  3
     0.00802890411664  8  8  4  1
     -0.0584858579969  8  8  4  2
      0.0650028681134  8  8  4  3
       0.610789930856  8  8  4  4
     0.00201712659395  8  8  5  1
     -0.0398823605349  8  8  5  2
     -0.0542191580632  8  8  5  3
    -0.00281676122504  8  8  5  4
       0.652624316143  8  8  5  5
      0.0304785464512  8  8  6  1
    -0.00294134778269  8  8  6  2
    -0.00363171177488  8  8  6  3
     -0.0159911153466  8  8  6  4
     -0.0228600253932  8  8  6  5
       0.648255367380  8  8  6  6
     -0.0102770092890  8  8  7  1
      0.0229372489826  8  8  7  2
      0.0150806114691  8  8  7  3
     -0.0315013536613  8  8  7  4
    -0.00588574767126  8  8  7  5
    -0.00366942405091  8  8  7  6
       0.638640236117  8  8  7  7
       0.633463636130  8  8  8  8
     -0.0169750566877  9  1  8  1
     0.00459062839455  9  1  8  2
      0.0397405815948  9  1  8  3
     0.00963240268957  9  1  8  4
    -0.00305086029475  9  1  8  5
    -0.00890660081244  9  1  8  6
    -0.00231276554995  9  1  8  7
      0.0503236626895  9  1  9  1
      0.0150332074075  9  2  8  1
    0.000765399592810  9  2  8  2
     -0.0106634839452  9  2  8  3
    -0.00883798678710  9  2  8  4
   -0.000965153167220  9  2  8  5
      0.0101662184003  9  2  8  6
    -0.00161666487393  9  2  8  7
     -0.0156874147081  9  2  9  1
     0.00793753263129  9  2  9  2
      0.0803220607848  9  3  8  1
     0.00592483179321  9  3  8  2
     -0.0179972986535  9  3  8  3
     -0.0452769947777  9  3  8  4
     -0.0212486250955  9  3  8  5
      0.0601288120545  9  3  8  6
     0.00684220406215  9  3  8  7
     -0.0112887735534  9  3  9  1
      0.0152535545313  9  3  9  2
      0.0966530857753  9  3  9  3
      0.0103560637415  9  4  8  1
    -0.00360682026195  9  4  8  2
     -0.0254767501814  9  4  8  3
    -0.00468244669572  9  4  8  4
    0.000299715800254  9  4  8  5
     0.00532380732351  9  4  8  6
     0.00775318618758  9  4  8  7
     -0.0248660135548  9  4  9  1
     0.00533785262759  9  4  9  2
     0.00833436608408  9  4  9  3
      0.0211201650233  9  4  9  4
     -0.0199086966261  9  5  8  1
     0.00388056264223  9  5  8  2
      0.0144838145581  9  5  8  3
     0.00888640206145  9  5  8  4
     0.00150741188168  9  5  8  5
     -0.0140370366759  9  5  8  6
   -0.000423906446230  9  5  8  7
      0.0191270121612  9  5  9  1
    -0.00901214684262  9  5  9  2
     -0.0217067613551  9  5  9  3
     -0.0123080375017  9  5  9  4
      0.0268345194551  9  5  9  5
    -0.00424797289184  9  6  8  1
     0.00300560671052  9  6  8  2
      0.0246221569726  9  6  8  3
     0.00240530057073  9  6  8  4
    -0.00365457970405  9  6  8  5
   -0.000200279891692  9  6  8  6
    -0.00183236524443  9  6  8  7
      0.0309692860823  9  6  9  1
    -0.00820117899191  9  6  9  2
    0.000509022880953  9  6  9  3
     -0.0160109947800  9  6  9  4
     0.00613693999374  9  6  9  5
      0.0296539848142  9  6  9  6
      0.0126617162463  9  7  8  1
    -0.00554186715858  9  7  8  2
     0.00986613947030  9  7  8  3
     0.00204262407724  9  7  8  4
    -0.00529658343346  9  7  8  5
      0.0108141265950  9  7  8  6
    -0.00274299643899  9  7  8  7
      0.0109604787255  9  7  9  1
    -0.00157739331177  9  7  9  2
      0.0181636846697  9  7  9  3
    -0.00461526125741  9  7  9  4
   -0.000709237422157  9  7  9  5
     0.00734106446524  9  7  9  6
      0.0301785324632  9  7  9  7
     -0.0627065677063  9  8  1  1
      0.0243039920673  9  8  2  1
     -0.0226420613709  9  8  2  2
      0.0761355112594  9  8  3  1
     -0.0121465369693  9  8  3  2
     -0.0407002704078  9  8  3  3
     0.00719923191220  9  8  4  1
    -0.00300446743510  9  8  4  2
     -0.0533895027514  9  8  4  3
     -0.0409943703262  9  8  4  4
     -0.0260871481454  9  8  5  1
      0.0279328857094  9  8  5  2
      0.0550122332582  9  8  5  3
     0.00213201408611  9  8  5  4
     -0.0818912532990  9  8  5  5
    -0.00262224434482  9  8  6  1
     0.00158898685407  9  8  6  2
      0.0124142122537  9  8  6  3
     0.00133693657524  9  8  6  4
    -0.00169725971311  9  8  6  5
     -0.0437478909404  9  8  6  6
      0.0267494017490  9  8  7  1
     -0.0268475190447  9  8  7  2
      0.0243869029032  9  8  7  3
      0.0381784266566  9  8  7  4
      0.0175629308108  9  8  7  5
     0.00114612438718  9  8  7  6
     -0.0387802304894  9  8  7  7
     -0.0570039970085  9  8  8  8
      0.0828603278396  9  8  9  8
       0.746876539578  9  9  1  1
      -0.125646147598  9  9  2  1
       0.459822802190  9  9  2  2
     -0.0356829605227  9  9  3  1
      0.0283392279205  9  9  3  2
       0.694972680636  9  9  3  3
      0.0342924180825  9  9  4  1
     -0.0834183303342  9  9  4  2
      0.0750013994923  9  9  4  3
       0.719556072694  9  9  4  4
      0.0426289777589  9  9  5  1
     -0.0572487590995  9  9  5  2
     -0.0728495321692  9  9  5  3
     -0.0295265599509  9  9  5  4
       0.774760996060  9  9  5  5
      0.0289782314005  9  9  6  1
    -0.00621340857066  9  9  6  2
    0.000465882300300  9  9  6  3
     -0.0125497452521  9  9  6  4
     -0.0141180070681  9  9  6  5
       0.718485190318  9  9  6  6
    -0.00182334880099  9  9  7  1
      0.0187011905554  9  9  7  2
      0.0569842437793  9  9  7  3
     -0.0344573459186  9  9  7  4
    -0.00756613303369  9  9  7  5
   -0.000845520862079  9  9  7  6
       0.787742097280  9  9  7  7
       0.663188578192  9  9  8  8
     -0.0545429681931  9  9  9  8
       0.796987752884  9  9  9  9
     -0.0426129991896 10  1  8  1
      0.0121710798023 10  1  8  2
    0.000759311983824 10  1  8  3
     0.00594547552829 10  1  8  4
      0.0184735354201 10  1  8  5
     -0.0347985844938 10  1  8  6
     0.00601941865336 10  1  8  7
     0.00332872191716 10  1  9  1
    -0.00546602088215 10  1  9  2
     -0.0416914343700 10  1  9  3
    -0.00444588292078 10  1  9  4
      0.0169059080941 10  1  9  5
    -0.00175315906186 10  1  9  6
     -0.0348141446262 10  1  9  7
      0.0771098388929 10  1 10  1
      0.0469006570270 10  2  8  1
     0.00594186471895 10  2  8  2
    -0.00839677455779 10  2  8  3
     -0.0178340254570 10  2  8  4
     -0.0203203140459 10  2  8  5
      0.0355988870081 10  2  8  6
    -0.00161236685394 10  2  8  7
    -0.00504465405619 10  2  9  1
     0.00715206104914 10  2  9  2
      0.0402884223871 10  2  9  3
     0.00327400353787 10  2  9  4
     -0.0112767785932 10  2  9  5
    0.000115790695429 10  2  9  6
      0.0163381411436 10  2  9  7
     -0.0404570252455 10  2 10  1
      0.0338470404870 10  2 10  2
     -0.0149457981658 10  3  8  1
    -0.00211834049321 10  3  8  2
     0.00276815846380 10  3  8  3
     0.00512204763257 10  3  8  4
     0.00966917742959 10  3  8  5
     -0.0115793580777 10  3  8  6
    -0.00665325345571 10  3  8  7
    -0.00751532531591 10  3  9  1
     0.00336647702100 10  3  9  2
     -0.0139158776425 10  3  9  3
    -0.00313743557537 10  3  9  4
    0.000408837189109 10  3  9  5
    -0.00520227414235 10  3  9  6
    -0.00752350853526 10  3  9  7
      0.0132462707021 10  3 10  1
     -0.0102767001446 10  3 10  2
      0.0119985939549 10  3 10  3
     -0.0378564450467 10  4  8  1
    0.000497189623257 10  4  8  2
     0.00326047029948 10  4  8  3
     0.00914145194504 10  4  8  4
      0.0162232577452 10  4  8  5
     -0.0282304264303 10  4  8  6
     0.00137810419197 10  4  8  7
    0.000291268521578 10  4  9  1
    -0.00380213113196 10  4  9  2
     -0.0331249987931 10  4  9  3
    -0.00318211803448 10  4  9  4
     0.00932747107080 10  4  9  5
    -0.00217386763513 10  4  9  6
     -0.0196697235911 10  4  9  7
      0.0527417186922 10  4 10  1
     -0.0346217713139 10  4 10  2
      0.0132013756210 10  4 10  3
      0.0501813234034 10  4 10  4
      0.0143349783659 10  5  8  1
    -0.00201114933115 10  5  8  2
     0.00668838387118 10  5  8  3
    -0.00287656859817 10  5  8  4
     -0.0136563514865 10  5  8  5
      0.0145401138086 10  5  8  6
    -0.00186731494935 10  5  8  7
      0.0106742495483 10  5  9  1
    -0.00270727712136 10  5  9  2
      0.0102377041180 10  5  9  3
    -0.00195714462946 10  5  9  4
    0.000355044359171 10  5  9  5
     0.00731447437675 10  5  9  6
     0.00691165178099 10  5  9  7
     -0.0227892798586 10  5 10  1
      0.0120146497399 10  5 10  2
    -0.00778523238965 10  5 10  3
     -0.0140249254846 10  5 10  4
      0.0184264562514 10  5 10  5
     -0.0321720863871 10  6  8  1
     0.00553597535275 10  6  8  2
     0.00152433350020 10  6  8  3
     0.00815137612618 10  6  8  4
      0.0165243053336 10  6  8  5
     -0.0332635001151 10  6  8  6
     0.00367849054879 10  6  8  7
     0.00153161289555 10  6  9  1
    -0.00363976216191 10  6  9  2
     -0.0294928464523 10  6  9  3
    -0.00243380009258 10  6  9  4
      0.0101349451255 10  6  9  5
    -0.00251743253192 10  6  9  6
     -0.0194112849098 10  6  9  7
      0.0453102784071 10  6 10  1
     -0.0256894382498 10  6 10  2
     0.00874103073579 10  6 10  3
      0.0279309206458 10  6 10  4
     -0.0176801671971 10  6 10  5
      0.0398489907038 10  6 10  6
      0.0194876688141 10  7  8  1
    -0.00219482681409 10  7  8  2
     -0.0230060970511 10  7  8  3
    -0.00743394548699 10  7  8  4
    -0.00495313600194 10  7  8  5
      0.0136425023341 10  7  8  6
    -0.00628156573143 10  7  8  7
     -0.0346586841923 10  7  9  1
      0.0131959351088 10  7  9  2
     0.00838495090832 10  7  9  3
     0.00717447945252 10  7  9  4
     -0.0119432733602 10  7  9  5
     -0.0194533325689 10  7  9  6
    -0.00327117023391 10  7  9  7
     -0.0152822974225 10  7 10  1
      0.0124210968406 10  7 10  2
     0.00796075640509 10  7 10  3
    -0.00911004154616 10  7 10  4
    -0.00436870788917 10  7 10  5
    -0.00960414339287 10  7 10  6
      0.0425843868766 10  7 10  7
     -0.0919848668419 10  8  1  1
      0.0409022201329 10  8  2  1
     -0.0209221561786 10  8  2  2
    -0.00455419892687 10  8  3  1
    -0.00362732808285 10  8  3  2
     -0.0526762361191 10  8  3  3
     -0.0390025579058 10  8  4  1
      0.0267189239786 10  8  4  2
     -0.0163609359706 10  8  4  3
     -0.0984130401243 10  8  4  4
    -0.00431649350153 10  8  5  1
     0.00681118637938 10  8  5  2
      0.0179154692957 10  8  5  3
     0.00427924797181 10  8  5  4
     -0.0843452970987 10  8  5  5
    -0.00598093077958 10  8  6  1
     0.00448231488316 10  8  6  2
    -0.00212652936628 10  8  6  3
    -0.00301049442157 10  8  6  4
     0.00419985861387 10  8  6  5
     -0.0801514554060 10  8  6  6
     0.00904983827496 10  8  7  1
    -0.00649737585497 10  8  7  2
     -0.0286289084213 10  8  7  3
     0.00561573379857 10  8  7  4
     0.00646093903711 10  8  7  5
     0.00235788604951 10  8  7  6
      -0.107204385600 10  8  7  7
     -0.0374410845650 10  8  8  8
     0.00498195090964 10  8  9  8
     -0.0807985171789 10  8  9  9
      0.0440255159171 10  8 10  8
     0.00727247748145 10  9  1  1
    -0.00539260180921 10  9  2  1
     0.00466012724086 10  9  2  2
     -0.0359897882911 10  9  3  1
      0.0119089938232 10  9  3  2
    -0.00235435722843 10  9  3  3
    -0.00816153737192 10  9  4  1
     0.00518860185330 10  9  4  2
      0.0104079643511 10  9  4  3
    -0.00467502652573 10  9  4  4
      0.0187307232182 10  9  5  1
     -0.0135764409449 10  9  5  2
     -0.0244908908398 10  9  5  3
     0.00184759347015 10  9  5  4
      0.0237293986984 10  9  5  5
   -0.000524640119673 10  9  6  1
   -0.000121966154562 10  9  6  2
    -0.00446615957694 10  9  6  3
   -0.000446066212697 10  9  6  4
     0.00236470926464 10  9  6  5
   -0.000154661181265 10  9  6  6
     -0.0379027775649 10  9  7  1
      0.0203624584557 10  9  7  2
     -0.0188969405534 10  9  7  3
     -0.0264645334767 10  9  7  4
     -0.0165830063595 10  9  7  5
    -0.00533709488741 10  9  7  6
     -0.0127228950301 10  9  7  7
     0.00709180232830 10  9  8  8
     -0.0331719589732 10  9  9  8
    4.86400446552E-05 10  9  9  9
    0.000814319014547 10  9 10  8
      0.0372119591637 10  9 10  9
       0.829628585497 10 10  1  1
      -0.167608482691 10 10  2  1
       0.483282205525 10 10  2  2
     -0.0164659199448 10 10  3  1
      0.0124430448963 10 10  3  2
       0.677002704422 10 10  3  3
       0.136932770978 10 10  4  1
      -0.133308480014 10 10  4  2
      0.0962321315346 10 10  4  3
       0.850862666853 10 10  4  4
      0.0100902445480 10 10  5  1
     -0.0479371962522 10 10  5  2
     -0.0786492499210 10 10  5  3
    -0.00981832570418 10 10  5  4
       0.790712408017 10 10  5  5
      0.0345626177964 10 10  6  1
     -0.0106119733109 10 10  6  2
     0.00262837482187 10 10  6  3
    -0.00166151044560 10 10  6  4
     -0.0237395680001 10 10  6  5
       0.778970482299 10 10  6  6
     -0.0258160098189 10 10  7  1
      0.0342032104646 10 10  7  2
      0.0882984788162 10 10  7  3
     -0.0367176331550 10 10  7  4
     -0.0271594465409 10 10  7  5
    -0.00652160197891 10 10  7  6
       0.874684025863 10 10  7  7
       0.674442100036 10 10  8  8
     -0.0495840068445 10 10  9  8
       0.788615157033 10 10  9  9
      -0.131171164225 10 10 10  8
    -0.00342099807722 10 10 10  9
       0.969420513179 10 10 10 10
      0.0881011518203 11  1 11  1
      0.0133170718948 11  2 11  1
      0.0156124726749 11  2 11  2
     -0.0257362604061 11  3 11  1
    -0.00177913127399 11  3 11  2
      0.0414865724931 11  3 11  3
     -0.0464477347291 11  4 11  1
     -0.0100660170068 11  4 11  2
      0.0149866443188 11  4 11  3
      0.0309658019778 11  4 11  4
     -0.0381787060975 11  5 11  1
    -0.00800187669544 11  5 11  2
     0.00534474797879 11  5 11  3
      0.0190780474960 11  5 11  4
      0.0310944315083 11  5 11  5
     -0.0684299774459 11  6 11  1
    -0.00875270196023 11  6 11  2
      0.0156285471655 11  6 11  3
      0.0362324483891 11  6 11  4
      0.0344285342358 11  6 11  5
      0.0698288210270 11  6 11  6
     0.00284533176118 11  7 11  1
     0.00144540071178 11  7 11  2
     -0.0102166712700 11  7 11  3
    -0.00320170633645 11  7 11  4
     0.00175802522243 11  7 11  5
    0.000198910530217 11  7 11  6
      0.0102395452709 11  7 11  7
      0.0297421728926 11  8 11  8
    -0.00383274148928 11  9 11  8
      0.0113812103009 11  9 11  9
     0.00253585800137 11 10 11  8
   -0.000432633334645 11 10 11  9
     0.00661699208047 11 10 11 10
       0.642690971606 11 11  1  1
     -0.0780546861478 11 11  2  1
       0.439572405844 11 11  2  2
     -0.0484802792388 11 11  3  1
      0.0141678048223 11 11  3  2
       0.593180957933 11 11  3  3
     0.00802890411664 11 11  4  1
     -0.0584858579969 11 11  4  2
      0.0650028681134 11 11  4  3
       0.610789930856 11 11  4  4
     0.00201712659395 11 11  5  1
     -0.0398823605349 11 11  5  2
     -0.0542191580632 11 11  5  3
    -0.00281676122504 11 11  5  4
       0.652624316143 11 11  5  5
     -0.0304785464512 11 11  6  1
     0.00294134778269 11 11  6  2
     0.00363171177488 11 11  6  3
      0.0159911153466 11 11  6  4
      0.0228600253932 11 11  6  5
       0.648255367380 11 11  6  6
     -0.0102770092890 11 11  7  1
      0.0229372489826 11 11  7  2
      0.0150806114691 11 11  7  3
     -0.0315013536613 11 11  7  4
    -0.00588574767126 11 11  7  5
     0.00366942405091 11 11  7  6
       0.638640236117 11 11  7  7
       0.573979290344 11 11  8  8
     -0.0493385140299 11 11  9  8
       0.620037508600 11 11  9  9
     -0.0425128005677 11 11 10  8
     0.00686492304048 11 11 10  9
       0.637412729943 11 11 10 10
       0.633463636130 11 11 11 11
     -0.0169750566877 12  1 11  1
     0.00459062839455 12  1 11  2
      0.0397405815948 12  1 11  3
     0.00963240268957 12  1 11  4
    -0.00305086029475 12  1 11  5
     0.00890660081244 12  1 11  6
    -0.00231276554995 12  1 11  7
      0.0503236626895 12  1 12  1
      0.0150332074075 12  2 11  1
    0.000765399592810 12  2 11  2
     -0.0106634839452 12  2 11  3
    -0.00883798678710 12  2 11  4
   -0.000965153167220 12  2 11  5
     -0.0101662184003 12  2 11  6
    -0.00161666487393 12  2 11  7
     -0.0156874147081 12  2 12  1
     0.00793753263129 12  2 12  2
      0.0803220607848 12  3 11  1
     0.00592483179321 12  3 11  2
     -0.0179972986535 12  3 11  3
     -0.0452769947777 12  3 11  4
     -0.0212486250955 12  3 11  5
     -0.0601288120545 12  3 11  6
     0.00684220406215 12  3 11  7
     -0.0112887735534 12  3 12  1
      0.0152535545313 12  3 12  2
      0.0966530857753 12  3 12  3
      0.0103560637415 12  4 11  1
    -0.00360682026195 12  4 11  2
     -0.0254767501814 12  4 11  3
    -0.00468244669572 12  4 11  4
    0.000299715800254 12  4 11  5
    -0.00532380732351 12  4 11  6
     0.00775318618758 12  4 11  7
     -0.0248660135548 12  4 12  1
     0.00533785262759 12  4 12  2
     0.00833436608408 12  4 12  3
      0.0211201650233 12  4 12  4
     -0.0199086966261 12  5 11  1
     0.00388056264223 12  5 11  2
      0.0144838145581 12  5 11  3
     0.00888640206145 12  5 11  4
     0.00150741188168 12  5 11  5
      0.0140370366759 12  5 11  6
   -0.000423906446230 12  5 11  7
      0.0191270121612 12  5 12  1
    -0.00901214684262 12  5 12  2
     -0.0217067613551 12  5 12  3
     -0.0123080375017 12  5 12  4
      0.0268345194551 12  5 12  5
     0.00424797289184 12  6 11  1
    -0.00300560671052 12  6 11  2
     -0.0246221569726 12  6 11  3
    -0.00240530057073 12  6 11  4
     0.00365457970405 12  6 11  5
   -0.000200279891692 12  6 11  6
     0.00183236524443 12  6 11  7
     -0.0309692860823 12  6 12  1
     0.00820117899191 12  6 12  2
   -0.000509022880953 12  6 12  3
      0.0160109947800 12  6 12  4
    -0.00613693999374 12  6 12  5
      0.0296539848142 12  6 12  6
      0.0126617162463 12  7 11  1
    -0.00554186715858 12  7 11  2
     0.00986613947030 12  7 11  3
     0.00204262407724 12  7 11  4
    -0.00529658343346 12  7 11  5
     -0.0108141265950 12  7 11  6
    -0.00274299643899 12  7 11  7
      0.0109604787255 12  7 12  1
    -0.00157739331177 12  7 12  2
      0.0181636846697 12  7 12  3
    -0.00461526125741 12  7 12  4
   -0.000709237422157 12  7 12  5
    -0.00734106446524 12  7 12  6
      0.0301785324632 12  7 12  7
    -0.00383274148928 12  8 11  8
      0.0113812103009 12  8 11  9
   -0.000432633334645 12  8 11 10
      0.0113812103009 12  8 12  8
      0.0215755347964 12  9 11  8
    -0.00207799778778 12  9 11  9
    -0.00315413236765 12  9 11 10
    -0.00207799778778 12  9 12  8
      0.0304699969430 12  9 12  9
    0.000113439643912 12 10 11  8
    -0.00364803491699 12 10 11  9
    0.000138924367615 12 10 11 10
    -0.00364803491699 12 10 12  8
    -0.00104143464738 12 10 12  9
     0.00609526707555 12 10 12 10
     -0.0627065677063 12 11  1  1
      0.0243039920673 12 11  2  1
     -0.0226420613709 12 11  2  2
      0.0761355112594 12 11  3  1
     -0.0121465369693 12 11  3  2
     -0.0407002704078 12 11  3  3
     0.00719923191220 12 11  4  1
    -0.00300446743510 12 11  4  2
     -0.0533895027514 12 11  4  3
     -0.0409943703262 12 11  4  4
     -0.0260871481454 12 11  5  1
      0.0279328857094 12 11  5  2
      0.0550122332582 12 11  5  3
     0.00213201408611 12 11  5  4
     -0.0818912532990 12 11  5  5
     0.00262224434482 12 11  6  1
    -0.00158898685407 12 11  6  2
     -0.0124142122537 12 11  6  3
    -0.00133693657524 12 11  6  4
     0.00169725971311 12 11  6  5
     -0.0437478909404 12 11  6  6
      0.0267494017490 12 11  7  1
     -0.0268475190447 12 11  7  2
      0.0243869029032 12 11  7  3