 &FCI NORB= 28,NELEC= 12,MS2= 0,
  ORBSYM=1,1,2,3,5,5,1,1,1,1,1,2,2,3,3,4,5,5,5,5,5,6,6,6,7,7,7,8,
  ISYM=0,
 /
  0.1965874781416570E+01   1   1   1   1
 -0.1744588391716472E+00   2   1   1   1
  0.3102185946447740E-01   2   1   2   1
  0.7021081254468902E+00   2   2   1   1
  0.7444370380967720E-03   2   2   2   1
  0.6488009625847236E+00   2   2   2   2
  0.5809574583239381E+00   3   3   1   1
 -0.7152979257059738E-03   3   3   2   1
  0.5275259298724658E+00   3   3   2   2
  0.4889291670084300E+00   3   3   3   3
  0.5809574583239379E+00   4   4   1   1
 -0.7152979257059630E-03   4   4   2   1
  0.5275259298724656E+00   4   4   2   2
  0.4488040825298180E+00   4   4   3   3
  0.4889291670084298E+00   4   4   4   4
  0.1966992501430656E+01   5   5   1   1
 -0.1746595946135242E+00   5   5   2   1
  0.7020479956161307E+00   5   5   2   2
  0.5809518041598140E+00   5   5   3   3
  0.5809518041598136E+00   5   5   4   4
  0.1968111586860305E+01   5   5   5   5
 -0.1530768676843041E+00   6   5   1   1
  0.2241093754991638E-01   6   5   2   1
 -0.1591463743049973E-01   6   5   2   2
 -0.6538187409791668E-02   6   5   3   3
 -0.6538187409791668E-02   6   5   4   4
 -0.1532197669768664E+00   6   5   5   5
  0.2280708708779445E-01   6   5   6   5
  0.5549919221549160E+00   6   6   1   1
 -0.9586495748202875E-02   6   6   2   1
  0.4395275947393202E+00   6   6   2   2
  0.4154401154110437E+00   6   6   3   3
  0.4154401154110435E+00   6   6   4   4
  0.5550637852921463E+00   6   6   5   5
 -0.2608417233902426E-02   6   6   6   5
  0.4457829807927574E+00   6   6   6   6
  0.3441453004573797E-01   7   1   1   1
  0.2675019926052381E-03   7   1   2   1
  0.2102918420912919E-01   7   1   2   2
  0.7891030756883377E-02   7   1   3   3
  0.7891030756883381E-02   7   1   4   4
  0.3441076865144058E-01   7   1   5   5
 -0.8369046459048318E-02   7   1   6   5
 -0.5371736716773806E-02   7   1   6   6
  0.1109310783428904E-01   7   1   7   1
  0.9488262401970764E-01   7   2   1   1
  0.6258009371974320E-02   7   2   2   1
  0.1215576697760988E+00   7   2   2   2
  0.6151242910279529E-01   7   2   3   3
  0.6151242910279529E-01   7   2   4   4
  0.9480043839714399E-01   7   2   5   5
 -0.6917069813001786E-02   7   2   6   5
  0.4986979361788960E-02   7   2   6   6
  0.1452735100351468E-01   7   2   7   1
  0.6666616313147421E-01   7   2   7   2
  0.5604735444446256E+00   7   7   1   1
 -0.4286335871643242E-02   7   7   2   1
  0.4706737560013902E+00   7   7   2   2
  0.4172247251183915E+00   7   7   3   3
  0.4172247251183914E+00   7   7   4   4
  0.5604840587915403E+00   7   7   5   5
 -0.3567652530042840E-02   7   7   6   5
  0.4371207931929724E+00   7   7   6   6
  0.6323390219818408E-03   7   7   7   1
  0.3236794372460898E-01   7   7   7   2
  0.4495555188669790E+00   7   7   7   7
 -0.1088224865798384E-01   8   1   1   1
 -0.3583363146704958E-02   8   1   2   1
 -0.1714218829359954E-01   8   1   2   2
 -0.5991312161522919E-02   8   1   3   3
 -0.5991312161522921E-02   8   1   4   4
 -0.1085827753170911E-01   8   1   5   5
  0.5132844197397114E-02   8   1   6   5
  0.5192758939668418E-02   8   1   6   6
 -0.1004180192954433E-01   8   1   7   1
 -0.1249236171112945E-01   8   1   7   2
 -0.4676416414640780E-03   8   1   7   7
  0.9533039964734005E-02   8   1   8   1
 -0.7015218911329234E-01   8   2   1   1
 -0.2742567780100039E-02   8   2   2   1
 -0.6400392289578903E-01   8   2   2   2
 -0.2337361351854794E-01   8   2   3   3
 -0.2337361351854794E-01   8   2   4   4
 -0.7010522289696666E-01   8   2   5   5
  0.5139529873609627E-02   8   2   6   5
 -0.9807275749893506E-02   8   2   6   6
 -0.9061807953102088E-02   8   2   7   1
 -0.3661150958885110E-01   8   2   7   2
 -0.3185671912392768E-01   8   2   7   7
  0.7945461252272723E-02   8   2   8   1
  0.3156232874219171E-01   8   2   8   2
 -0.1755377944209452E+00   8   7   1   1
  0.1828973950040061E-02   8   7   2   1
 -0.1253149942293393E+00   8   7   2   2
 -0.8678414044899829E-01   8   7   3   3
 -0.8678414044899826E-01   8   7   4   4
 -0.1755299680143662E+00   8   7   5   5
  0.5202994393522789E-02   8   7   6   5
 -0.6204936380609133E-01   8   7   6   6
 -0.5000065798050289E-02   8   7   7   1
 -0.3899214090312823E-01   8   7   7   2
 -0.7148723239747211E-01   8   7   7   7
  0.3927720767258992E-02   8   7   8   1
  0.2111846509390027E-01   8   7   8   2
  0.5416849516462567E-01   8   7   8   7
  0.4411274713304961E+00   8   8   1   1
 -0.1634338071562201E-02   8   8   2   1
  0.3950501416524416E+00   8   8   2   2
  0.3542192224785310E+00   8   8   3   3
  0.3542192224785310E+00   8   8   4   4
  0.4411193761433382E+00   8   8   5   5
 -0.5049071396358250E-02   8   8   6   5
  0.3418781923897392E+00   8   8   6   6
  0.4959686576273331E-02   8   8   7   1
  0.3509067781710035E-01   8   8   7   2
  0.3544861329469249E+00   8   8   7   7
 -0.4000367180134190E-02   8   8   8   1
 -0.2290440618259293E-01   8   8   8   2
 -0.4363741723933215E-01   8   8   8   7
  0.3172083072678195E+00   8   8   8   8
  0.1335134487272477E+00   9   1   1   1
 -0.1905045301372521E-01   9   1   2   1
  0.1371184973889635E-01   9   1   2   2
  0.5869122104462169E-02   9   1   3   3
  0.5869122104462167E-02   9   1   4   4
  0.1336361330139476E+00   9   1   5   5
 -0.2012753324027627E-01   9   1   6   5
  0.1549338488579479E-02   9   1   6   6
  0.8090617229406167E-02   9   1   7   1
  0.6152914832159517E-02   9   1   7   2
  0.2254205048530609E-02   9   1   7   7
 -0.5232943704501368E-02   9   1   8   1
 -0.4386495188607713E-02   9   1   8   2
 -0.4179738422566532E-02   9   1   8   7
  0.4150448031721836E-02   9   1   8   8
  0.1798946403437232E-01   9   1   9   1
 -0.1305022007481061E+00   9   2   1   1
  0.4284869011341364E-02   9   2   2   1
 -0.7149117791826194E-01   9   2   2   2
 -0.4656666435134930E-01   9   2   3   3
 -0.4656666435134928E-01   9   2   4   4
 -0.1305227926342312E+00   9   2   5   5
  0.4785868613490550E-02   9   2   6   5
 -0.5059496195936002E-01   9   2   6   6
 -0.2226038014610675E-02   9   2   7   1
 -0.1733485002753551E-01   9   2   7   2
 -0.5730789770096203E-01   9   2   7   7
  0.1518918049252834E-02   9   2   8   1
  0.1845812383940515E-01   9   2   8   2
  0.2727275410621359E-01   9   2   8   7
 -0.2926645733695632E-01   9   2   8   8
 -0.3830925673799779E-02   9   2   9   1
  0.2621162307150444E-01   9   2   9   2
  0.1039798675069724E+00   9   7   1   1
 -0.6877511755615789E-02   9   7   2   1
  0.3407082099669222E-01   9   7   2   2
  0.3978936420258530E-01   9   7   3   3
  0.3978936420258528E-01   9   7   4   4
  0.1040389041210284E+00   9   7   5   5
  0.1443354361741167E-02   9   7   6   5
  0.6858624294349876E-01   9   7   6   6
 -0.8125833232466202E-02   9   7   7   1
 -0.1469539827291137E-01   9   7   7   2
  0.6023045273550542E-01   9   7   7   7
  0.7283685326321678E-02   9   7   8   1
  0.6138196026582079E-02   9   7   8   2
 -0.1950384681298016E-01   9   7   8   7
  0.2293310751629407E-01   9   7   8   8
 -0.1876724350301701E-02   9   7   9   1
 -0.1753199731615104E-01   9   7   9   2
  0.3848218392530044E-01   9   7   9   7
 -0.1719367499432000E-01   9   8   1   1
  0.5364706379122485E-02   9   8   2   1
  0.3607397282649052E-01   9   8   2   2
  0.2357537706797322E-01   9   8   3   3
  0.2357537706797323E-01   9   8   4   4
 -0.1724235736109111E-01   9   8   5   5
 -0.1531161542602431E-02   9   8   6   5
 -0.1667685868695321E-01   9   8   6   6
  0.6845736279916902E-02   9   8   7   1
  0.2375937128608626E-01   9   8   7   2
 -0.1290991684154805E-01   9   8   7   7
 -0.6022207577747148E-02   9   8   8   1
 -0.1357511999445574E-02   9   8   8   2
 -0.1073763495724957E-01   9   8   8   7
  0.4173809474092602E-02   9   8   8   8
  0.1735878741482563E-02   9   8   9   1
  0.8985889923906989E-02   9   8   9   2
 -0.1578775262344608E-01   9   8   9   7
  0.3030437148598381E-01   9   8   9   8
  0.4910914001799975E+00   9   9   1   1
 -0.6883316373571613E-02   9   9   2   1
  0.4097163858514244E+00   9   9   2   2
  0.3857315844846735E+00   9   9   3   3
  0.3857315844846734E+00   9   9   4   4
  0.4911366023057352E+00   9   9   5   5
 -0.3100971088353620E-02   9   9   6   5
  0.3838352367821845E+00   9   9   6   6
 -0.2320547634358254E-02   9   9   7   1
  0.1797376832182727E-01   9   9   7   2
  0.3798325279274919E+00   9   9   7   7
  0.2628921763766078E-02   9   9   8   1
 -0.5960318198938719E-02   9   9   8   2
 -0.5826933438096787E-01   9   9   8   7
  0.3205289787874119E+00   9   9   8   8
  0.2133015461933174E-02   9   9   9   1
 -0.3265175957572020E-01   9   9   9   2
  0.4747060812403769E-01   9   9   9   7
  0.4484217434530258E-02   9   9   9   8
  0.3576248854838596E+00   9   9   9   9
 -0.5668597866025509E-16  10   1   1   1
  0.7812647661836721E-17  10   1   2   1
 -0.6616261852054732E-17  10   1   2   2
  0.1669552121880401E-02  10   1   3   3
 -0.1669552121880405E-02  10   1   4   4
 -0.5673604712681235E-16  10   1   5   5
  0.8767765931911157E-17  10   1   6   5
 -0.2452996669485908E-18  10   1   6   6
 -0.3985176608438200E-17  10   1   7   1
 -0.3307219608589446E-17  10   1   7   2
 -0.8849462138473009E-18  10   1   7   7
  0.2743208880196742E-17  10   1   8   1
  0.2242193057891417E-17  10   1   8   2
  0.1944356044567730E-17  10   1   8   7
 -0.1957284646604480E-17  10   1   8   8
 -0.7780803083296456E-17  10   1   9   1
  0.2221733663446349E-17  10   1   9   2
  0.1168987059484953E-17  10   1   9   7
 -0.9529291438946088E-18  10   1   9   8
 -0.8422817063356828E-18  10   1   9   9
  0.2958020844130081E-03  10   1  10   1
  0.5299658893261289E-16  10   2   1   1
 -0.1941302317813730E-17  10   2   2   1
  0.2924192240678037E-16  10   2   2   2
  0.2561914545306414E-01  10   2   3   3
 -0.2561914545306409E-01  10   2   4   4
  0.5300892486337396E-16  10   2   5   5
 -0.1717171119564091E-17  10   2   6   5
  0.2261773217398299E-16  10   2   6   6
  0.4285222923853341E-18  10   2   7   1
  0.5154724589149788E-17  10   2   7   2
  0.2364201134719163E-16  10   2   7   7
 -0.2477390360560579E-18  10   2   8   1
 -0.6831799052299975E-17  10   2   8   2
 -0.1074439648500185E-16  10   2   8   7
  0.1102281927202093E-16  10   2   8   8
  0.1936892509139094E-17  10   2   9   1
  0.6732752719197277E-18  10   2   9   2
  0.7331574294213005E-17  10   2   9   7
 -0.2353794924567467E-18  10   2   9   8
  0.1959133813016320E-16  10   2   9   9
  0.1771752011788476E-02  10   2  10   1
  0.3444484284594515E-01  10   2  10   2
 -0.5527595640817791E-16  10   7   1   1
  0.3033352922732596E-17  10   7   2   1
 -0.2271967656310976E-16  10   7   2   2
 -0.2897578891141596E-02  10   7   3   3
  0.2897578891141546E-02  10   7   4   4
 -0.5530086182346773E-16  10   7   5   5
 -0.3411060989441970E-18  10   7   6   5
 -0.3369761976695216E-16  10   7   6   6
  0.3202962654467840E-17  10   7   7   1
  0.4052689556625485E-17  10   7   7   2
 -0.3051959055728743E-16  10   7   7   7
 -0.2898425859569949E-17  10   7   8   1
 -0.1391244164224602E-17  10   7   8   2
  0.1143465180175237E-16  10   7   8   7
 -0.1257362163481576E-16  10   7   8   8
  0.4995475040683408E-18  10   7   9   1
  0.8453485930625165E-17  10   7   9   2
 -0.1524551831715015E-16  10   7   9   7
  0.5335382009062918E-17  10   7   9   8
 -0.2426422245594296E-16  10   7   9   9
 -0.2531272481817866E-03  10   7  10   1
 -0.2307196416989911E-02  10   7  10   2
  0.8010200303756536E-02  10   7  10   7
  0.1232804476901397E-16  10   8   1   1
 -0.2481072816986141E-17  10   8   2   1
 -0.1282694269473433E-16  10   8   2   2
  0.1005501518146296E-01  10   8   3   3
 -0.1005501518146297E-01  10   8   4   4
  0.1234979331579870E-16  10   8   5   5
  0.5076955022965510E-18  10   8   6   5
  0.1039435885866234E-16  10   8   6   6
 -0.2911620534550749E-17  10   8   7   1
 -0.1024774353590988E-16  10   8   7   2
  0.9404996720602739E-17  10   8   7   7
  0.2546550391648800E-17  10   8   8   1
 -0.6047832791947477E-18  10   8   8   2
  0.4871144806138792E-17  10   8   8   7
  0.1119357620462570E-17  10   8   8   8
 -0.4903032813284090E-18  10   8   9   1
 -0.3093384546398609E-18  10   8   9   2
  0.6149338652836381E-17  10   8   9   7
 -0.1169162412225948E-16  10   8   9   8
  0.4704003081456745E-17  10   8   9   9
  0.4566591668615389E-03  10   8  10   1
  0.1300740765263707E-01  10   8  10   2
 -0.2535317354073368E-02  10   8  10   7
  0.8745633617532368E-02  10   8  10   8
 -0.6050967395437708E-16  10   9   1   1
  0.3852780177338661E-17  10   9   2   1
 -0.2374014150542141E-16  10   9   2   2
  0.6202761612929386E-02  10   9   3   3
 -0.6202761612929446E-02  10   9   4   4
 -0.6053832684552032E-16  10   9   5   5
  0.3556927154492715E-18  10   9   6   5
 -0.4461129642962287E-16  10   9   6   6
  0.3094884136985629E-17  10   9   7   1
  0.8302389691108581E-17  10   9   7   2
 -0.4436861330904923E-16  10   9   7   7
 -0.2807121151685507E-17  10   9   8   1
 -0.1067790525732110E-17  10   9   8   2
  0.2278409739424815E-17  10   9   8   7
 -0.3544787617428053E-16  10   9   8   8
 -0.5534921256533397E-19  10   9   9   1
  0.7122654518834188E-17  10   9   9   2
 -0.1099064171046981E-16  10   9   9   7
  0.9593692936248336E-17  10   9   9   8
 -0.3487510049789914E-16  10   9   9   9
 -0.2239571458557096E-03  10   9  10   1
  0.8691586842652308E-02  10   9  10   2
 -0.3219196972266164E-03  10   9  10   7
  0.6873140093906965E-02  10   9  10   8
  0.1021957017110009E-01  10   9  10   9
  0.5021510587139304E+00  10  10   1   1
  0.2095994984144051E-02  10  10   2   1
  0.4993975026493765E+00  10  10   2   2
  0.4557050869007090E+00  10  10   3   3
  0.4557050869007089E+00  10  10   4   4
  0.5021290994468656E+00  10  10   5   5
 -0.2792302535521232E-02  10  10   6   5
  0.4047982734743215E+00  10  10   6   6
  0.5573184289251082E-02  10  10   7   1
  0.4817156543116230E-01  10  10   7   2
  0.3995174126261968E+00  10  10   7   7
 -0.4378337968947411E-02  10  10   8   1
 -0.1039683462744870E-01  10  10   8   2
 -0.7252697768065136E-01  10  10   8   7
  0.3443992457508771E+00  10  10   8   8
  0.2649594719333459E-02  10  10   9   1
 -0.3260705272514486E-01  10  10   9   2
  0.3376226769726609E-01  10  10   9   7
  0.2776744827029676E-01  10  10   9   8
  0.3770348724529044E+00  10  10   9   9
 -0.1221281986678115E-17  10  10  10   1
  0.5338396445922773E-17  10  10  10   2
 -0.1892739645362952E-16  10  10  10   7
 -0.1780735386032710E-16  10  10  10   8
 -0.3022800251881872E-16  10  10  10   9
  0.4662267079077799E+00  10  10  10  10
  0.1007741534202254E-01  11   1   1   1
 -0.2121346107647859E-02  11   1   2   1
  0.5282726697152287E-04  11   1   2   2
 -0.9749216593746311E-03  11   1   3   3
 -0.9749216593746312E-03  11   1   4   4
  0.1008555552648201E-01  11   1   5   5
  0.1458203459255605E-03  11   1   6   5
  0.2070425781488473E-02  11   1   6   6
 -0.2247363522427917E-02  11   1   7   1
 -0.5774599345661027E-04  11   1   7   2
  0.3516861043799575E-02  11   1   7   7
  0.2322852872125951E-02  11   1   8   1
 -0.7873471360040784E-03  11   1   8   2
 -0.1580874237426512E-02  11   1   8   7
  0.1550542543524313E-02  11   1   8   8
 -0.3504536747692857E-03  11   1   9   1
 -0.7136224845266172E-03  11   1   9   2
  0.2210357380234384E-02  11   1   9   7
 -0.1539060690259037E-02  11   1   9   8
  0.1866516457575292E-02  11   1   9   9
  0.2830820715934337E-18  11   1  10   1
  0.2696427082313257E-18  11   1  10   2
 -0.1043395097091784E-17  11   1  10   7
  0.7963052838030323E-18  11   1  10   8
 -0.1289456269496327E-17  11   1  10   9
 -0.1277920935198250E-02  11   1  10  10
  0.1560934922641619E-02  11   1  11   1
  0.4139828800312751E-02  11   2   1   1
  0.3376818903557592E-02  11   2   2   1
  0.3427559063178898E-01  11   2   2   2
  0.2319478664431694E-02  11   2   3   3
  0.2319478664431702E-02  11   2   4   4
  0.4086140068444355E-02  11   2   5   5
 -0.1880706747738786E-02  11   2   6   5
 -0.6157634388468955E-02  11   2   6   6
  0.5284269320507821E-02  11   2   7   1
  0.2816431805569842E-01  11   2   7   2
  0.1645110695436350E-01  11   2   7   7
 -0.4954278990672826E-02  11   2   8   1
 -0.2136960444634796E-01  11   2   8   2
 -0.1159997176047564E-01  11   2   8   7
  0.1304474547150986E-01  11   2   8   8
  0.1238687382385594E-02  11   2   9   1
 -0.6360004063830596E-02  11   2   9   2
 -0.5917090660677910E-02  11   2   9   7
  0.7018028202063955E-02  11   2   9   8
  0.6010491974259621E-03  11   2   9   9
 -0.8063044989016283E-18  11   2  10   1
  0.1115018205312219E-17  11   2  10   2
  0.1923947878345554E-17  11   2  10   7
 -0.2428851205038034E-17  11   2  10   8
 -0.1236011046763259E-17  11   2  10   9
 -0.3903223083908825E-02  11   2  10  10
  0.1785036187034036E-02  11   2  11   1
  0.2938530791190414E-01  11   2  11   2
  0.2096199798446530E-01  11   7   1   1
  0.5300452954391915E-02  11   7   2   1
  0.5821620422490083E-01  11   7   2   2
  0.2998022078976465E-01  11   7   3   3
  0.2998022078976465E-01  11   7   4   4
  0.2090599684932709E-01  11   7   5   5
 -0.3462660216164558E-02  11   7   6   5
 -0.1872091272203413E-01  11   7   6   6
  0.9314847604577077E-02  11   7   7   1
  0.3879478053561176E-01  11   7   7   2
 -0.1075961941674093E-01  11   7   7   7
 -0.7962441099254610E-02  11   7   8   1
 -0.1579045965397245E-01  11   7   8   2
 -0.2073346025897546E-01  11   7   8   7
  0.7592290387614538E-02  11   7   8   8
  0.3364911185221495E-02  11   7   9   1
 -0.3192740252556774E-02  11   7   9   2
 -0.2128585889680133E-01  11   7   9   7
  0.2071075811749196E-01  11   7   9   8
 -0.3021370607925756E-02  11   7   9   9
 -0.1883884090825239E-17  11   7  10   1
  0.5014867237003881E-18  11   7  10   2
  0.7969379088626915E-17  11   7  10   7
 -0.9545196238222317E-17  11   7  10   8
  0.1098279942352217E-16  11   7  10   9
  0.2779113317091915E-01  11   7  10  10
 -0.1846470308569268E-02  11   7  11   1
  0.6938317971227244E-02  11   7  11   2
  0.4444909146558842E-01  11   7  11   7
 -0.5396966218624613E-01  11   8   1   1
 -0.3217173203576134E-02  11   8   2   1
 -0.6703714166724352E-01  11   8   2   2
 -0.4286649406936356E-01  11   8   3   3
 -0.4286649406936355E-01  11   8   4   4
 -0.5393373574863974E-01  11   8   5   5
  0.1501449132813537E-02  11   8   6   5
 -0.3367584691975354E-01  11   8   6   6
 -0.4876233470901367E-02  11   8   7   1
 -0.2101202727048684E-01  11   8   7   2
 -0.4215986624434719E-01  11   8   7   7
  0.4451258420254952E-02  11   8   8   1
  0.1628226809229982E-01  11   8   8   2
  0.1677053990775855E-01  11   8   8   7
 -0.2727814557103060E-01  11   8   8   8
 -0.1337546908486711E-02  11   8   9   1
  0.1364830251943949E-01  11   8   9   2
 -0.8464875104521388E-03  11   8   9   7
 -0.2993005887211395E-02  11   8   9   8
 -0.2243087382572240E-01  11   8   9   9
  0.8285083664464430E-18  11   8  10   1
 -0.4911242994468887E-17  11   8  10   2
  0.1269731315211112E-17  11   8  10   7
  0.1174587999146831E-17  11   8  10   8
 -0.2747708547241308E-17  11   8  10   9
 -0.3933297205368921E-01  11   8  10  10
  0.4128460039911422E-03  11   8  11   1
 -0.8672512735006674E-02  11   8  11   2
 -0.1076926905939731E-01  11   8  11   7
  0.1766468299586677E-01  11   8  11   8
 -0.1920826969996478E-01  11   9   1   1
  0.1106089774646678E-02  11   9   2   1
 -0.9239836962409218E-02  11   9   2   2
 -0.2184472932436055E-02  11   9   3   3
 -0.2184472932436051E-02  11   9   4   4
 -0.1920795978875178E-01  11   9   5   5
 -0.6694554832817495E-03  11   9   6   5
 -0.2284227546798330E-01  11   9   6   6
  0.1988184885326898E-02  11   9   7   1
  0.1910669974247901E-02  11   9   7   2
 -0.2922401058224142E-01  11   9   7   7
 -0.1504034244483038E-02  11   9   8   1
  0.6672452801508832E-02  11   9   8   2
  0.3827417973586400E-02  11   9   8   7
 -0.1007181136209675E-01  11   9   8   8
  0.1042493814628838E-02  11   9   9   1
  0.8289868202046448E-02  11   9   9   2
 -0.1155386066757250E-01  11   9   9   7
  0.1161015840645758E-01  11   9   9   8
 -0.1053462943429305E-01  11   9   9   9
 -0.8514198459456805E-18  11   9  10   1
 -0.7445226336706615E-17  11   9  10   2
  0.7201232384460286E-17  11   9  10   7
 -0.7661160111891555E-17  11   9  10   8
  0.4331439849159955E-17  11   9  10   9
 -0.7505292858387151E-03  11   9  10  10
 -0.2074181405594992E-02  11   9  11   1
 -0.8103066247229493E-02  11   9  11   2
  0.1297784944870230E-01  11   9  11   7
  0.4106964530442829E-02  11   9  11   8
  0.1521742560181734E-01  11   9  11   9
  0.6500168372951256E-17  11  10   1   1
 -0.6904349548627457E-18  11  10   2   1
  0.3544095153581854E-18  11  10   2   2
 -0.1026982278251478E-01  11  10   3   3
  0.1026982278251477E-01  11  10   4   4
  0.6501694131134885E-17  11  10   5   5
  0.3727210712585126E-18  11  10   6   5
  0.8555916056478704E-17  11  10   6   6
 -0.1158177833616958E-17  11  10   7   1
 -0.1907792183749078E-17  11  10   7   2
  0.1110153664371436E-16  11  10   7   7
  0.9448942293458535E-18  11  10   8   1
 -0.1942521863634090E-17  11  10   8   2
 -0.1045211877382037E-17  11  10   8   7
  0.3369911168696960E-17  11  10   8   8
 -0.8373444724700991E-18  11  10   9   1
 -0.7267563127313637E-17  11  10   9   2
  0.7234997596007508E-17  11  10   9   7
 -0.7392631805631255E-17  11  10   9   8
  0.2883888403765652E-17  11  10   9   9
 -0.9367239785114152E-03  11  10  10   1
 -0.1267816194032479E-01  11  10  10   2
  0.6112896663030332E-02  11  10  10   7
 -0.5918689203815471E-02  11  10  10   8
 -0.1227486897360537E-02  11  10  10   9
  0.8963955469617474E-19  11  10  10  10
  0.9165620678902002E-18  11  10  11   1
  0.3144851927223647E-17  11  10  11   2
 -0.6402585591901293E-17  11  10  11   7
 -0.1381498022746954E-17  11  10  11   8
 -0.2270949626703777E-17  11  10  11   9
  0.1350430038127030E-01  11  10  11  10
  0.5159462967139323E+00  11  11   1   1
 -0.3419685829355265E-03  11  11   2   1
  0.4751122362102131E+00  11  11   2   2
  0.4252953466993322E+00  11  11   3   3
  0.4252953466993325E+00  11  11   4   4
  0.5159330873769221E+00  11  11   5   5
 -0.2006288917502681E-02  11  11   6   5
  0.4224483909949388E+00  11  11   6   6
  0.2273933038176612E-02  11  11   7   1
  0.3653848309983011E-01  11  11   7   2
  0.4287929102020601E+00  11  11   7   7
 -0.1922177250346220E-02  11  11   8   1
 -0.2409556321763157E-01  11  11   8   2
 -0.6892654039920237E-01  11  11   8   7
  0.3474776257410623E+00  11  11   8   8
  0.1295937421273236E-02  11  11   9   1
 -0.4855678978664257E-01  11  11   9   2
  0.5046613599787075E-01  11  11   9   7
  0.4315150073033902E-02  11  11   9   8
  0.3747643416401429E+00  11  11   9   9
 -0.5989370078023116E-18  11  11  10   1
  0.2022266208303122E-16  11  11  10   2
 -0.2618955326601655E-16  11  11  10   7
  0.8135266190995999E-18  11  11  10   8
 -0.3686851896618075E-16  11  11  10   9
  0.4145781143756215E+00  11  11  10  10
  0.1303015082539466E-02  11  11  11   1
  0.1072620887478060E-01  11  11  11   2
 -0.2841518668191712E-02  11  11  11   7
 -0.4327268261143552E-01  11  11  11   8
 -0.2040271694275042E-01  11  11  11   9
  0.7148932726946479E-17  11  11  11  10
  0.4322686619512859E+00  11  11  11  11
 -0.1973022135687237E+00  12   3   1   1
  0.2601132440247546E-02  12   3   2   1
 -0.1314691835670852E+00  12   3   2   2
 -0.9722954650558990E-01  12   3   3   3
 -0.9024720058821040E-01  12   3   4   4
 -0.1973140223668083E+00  12   3   5   5
  0.5744898376375003E-02  12   3   6   5
 -0.7425215036716330E-01  12   3   6   6
 -0.5139367397236689E-02  12   3   7   1
 -0.3541898561285536E-01  12   3   7   2
 -0.8182000792965693E-01  12   3   7   7
  0.3780787574816631E-02  12   3   8   1
  0.2360759337428006E-01  12   3   8   2
  0.4247379504113327E-01  12   3   8   7
 -0.5040916953937429E-01  12   3   8   8
 -0.5051277952033043E-02  12   3   9   1
  0.3387190279397337E-01  12   3   9   2
 -0.2022631280105977E-01  12   3   9   7
  0.2979354764275910E-02  12   3   9   8
 -0.5454452904211909E-01  12   3   9   9
 -0.9604506480058729E-03  12   3  10   1
 -0.4485165601131222E-02  12   3  10   2
 -0.1735895949477509E-02  12   3  10   7
  0.1418381485331553E-02  12   3  10   8
  0.4932326225828263E-02  12   3  10   9
 -0.7560741562787762E-01  12   3  10  10
  0.2676238229665090E-03  12   3  11   1
 -0.4315185696642604E-02  12   3  11   2
 -0.1449519938871664E-01  12   3  11   7
  0.2081473650359720E-01  12   3  11   8
  0.4805545286814247E-02  12   3  11   9
  0.2272055670543060E-02  12   3  11  10
 -0.7720702697850598E-01  12   3  11  11
  0.6359705393183185E-01  12   3  12   3
  0.4862315309434355E+00  12  12   1   1
 -0.2966233802305943E-02  12  12   2   1
  0.4204917375394542E+00  12  12   2   2
  0.3959249683685238E+00  12  12   3   3
  0.3695076088984171E+00  12  12   4   4
  0.4862453064228600E+00  12  12   5   5
 -0.6662643477198974E-02  12  12   6   5
  0.3478048359073679E+00  12  12   6   6
  0.5974232560006659E-02  12  12   7   1
  0.4073088630446189E-01  12  12   7   2
  0.3499651297474102E+00  12  12   7   7
 -0.4359250928458257E-02  12  12   8   1
 -0.1675662358002578E-01  12  12   8   2
 -0.6042313248241787E-01  12  12   8   7
  0.3098196538913697E+00  12  12   8   8
  0.5978214100663737E-02  12  12   9   1
 -0.3067730920321021E-01  12  12   9   2
  0.2540584549216052E-01  12  12   9   7
  0.1853616375014694E-01  12  12   9   8
  0.3344167073741479E+00  12  12   9   9
  0.1167891422231424E-02  12  12  10   1
  0.1491841695524413E-01  12  12  10   2
 -0.2798298768041427E-02  12  12  10   7
  0.6633049688109635E-02  12  12  10   8
  0.5954879678679970E-02  12  12  10   9
  0.3692170802592311E+00  12  12  10  10
 -0.4549753300717718E-03  12  12  11   1
  0.3264420150411174E-02  12  12  11   2
  0.1854593133529808E-01  12  12  11   7
 -0.2583304603432862E-01  12  12  11   8
  0.1238586861099067E-02  12  12  11   9
 -0.5203633775002310E-02  12  12  11  10
  0.3534555765902444E+00  12  12  11  11
 -0.5829794783539460E-01  12  12  12   3
  0.3493381834055900E+00  12  12  12  12
 -0.1331516863569618E-01  13   3   1   1
  0.6445733120032940E-02  13   3   2   1
  0.5571487652397178E-01  13   3   2   2
  0.3028534223953699E-01  13   3   3   3
  0.2192504133590855E-01  13   3   4   4
 -0.1338101111932932E-01  13   3   5   5
 -0.2384715080977841E-02  13   3   6   5
 -0.2714586627425620E-01  13   3   6   6
  0.8814123287641489E-02  13   3   7   1
  0.4145543410443478E-01  13   3   7   2
 -0.1220112847805536E-01  13   3   7   7
 -0.7648063961661468E-02  13   3   8   1
 -0.1104707563442791E-01  13   3   8   2
 -0.1145797974186852E-01  13   3   8   7
  0.9118848213239338E-02  13   3   8   8
  0.2319631552947394E-02  13   3   9   1
  0.5963778488904552E-02  13   3   9   2
 -0.1989124708724804E-01  13   3   9   7
  0.2744966539732873E-01  13   3   9   8
 -0.2651848846662738E-02  13   3   9   9
 -0.1245043390278957E-03  13   3  10   1
  0.7614496787177574E-02  13   3  10   2
  0.6569755750761207E-02  13   3  10   7
  0.2479696233709260E-02  13   3  10   8
  0.4922604460545735E-02  13   3  10   9
  0.2674272790525678E-01  13   3  10  10
 -0.7712583704433508E-03  13   3  11   1
  0.1749764071942930E-01  13   3  11   2
  0.2509770135111532E-01  13   3  11   7
 -0.5379263233115598E-02  13   3  11   8
  0.7446367272225619E-02  13   3  11   9
  0.3223073300663826E-02  13   3  11  10
  0.1413023844695396E-02  13   3  11  11
 -0.7411410957045797E-02  13   3  12   3
  0.1626474821649267E-01  13   3  12  12
  0.5507104566831666E-01  13   3  13   3
  0.2285326697481951E-01  13  12   1   1
 -0.4569665248214639E-02  13  12   2   1
 -0.2155934562643232E-01  13  12   2   2
 -0.6277003505552785E-02  13  12   3   3
 -0.5478455958367329E-02  13  12   4   4
  0.2289690349314997E-01  13  12   5   5
  0.1284441982678956E-03  13  12   6   5
  0.5483593679020634E-02  13  12   6   6
 -0.4259963657421487E-02  13  12   7   1
 -0.1547841049528424E-01  13  12   7   2
 -0.3859619815597079E-02  13  12   7   7
  0.4031848710176198E-02  13  12   8   1
  0.1007353623381627E-01  13  12   8   2
  0.9917418114785762E-04  13  12   8   7
 -0.4897538684519279E-02  13  12   8   8
 -0.1678686580836595E-03  13  12   9   1
  0.2478372597391233E-03  13  12   9   2
  0.1036377049426134E-01  13  12   9   7
 -0.4558699327184496E-02  13  12   9   8
  0.5159044076557253E-02  13  12   9   9
  0.1807731194790806E-03  13  12  10   1
 -0.1924501096556758E-02  13  12  10   2
 -0.1551929229759403E-02  13  12  10   7
  0.1356373243722322E-02  13  12  10   8
 -0.2957629538269584E-03  13  12  10   9
 -0.7231119163157881E-02  13  12  10  10
  0.2228996597908803E-03  13  12  11   1
 -0.9768899974991658E-02  13  12  11   2
 -0.7693430970103870E-02  13  12  11   7
  0.6462291480713887E-02  13  12  11   8
  0.2413684347273215E-02  13  12  11   9
 -0.9743917553556108E-03  13  12  11  10
 -0.4474411281159840E-02  13  12  11  11
  0.3263632248822475E-02  13  12  12   3
 -0.1201744739100217E-03  13  12  12  12
 -0.1529766597469184E-01  13  12  13   3
  0.1272847408040919E-01  13  12  13  12
  0.5401645792111023E+00  13  13   1   1
 -0.5890653758288790E-03  13  13   2   1
  0.5060899282302721E+00  13  13   2   2
  0.4701094456224858E+00  13  13   3   3
  0.4359541219041538E+00  13  13   4   4
  0.5401556340025323E+00  13  13   5   5
 -0.2311981758379055E-02  13  13   6   5
  0.4343003826818415E+00  13  13   6   6
  0.2413917464322064E-02  13  13   7   1
  0.4417494950694836E-01  13  13   7   2
  0.4382288665118652E+00  13  13   7   7
 -0.1789619568274219E-02  13  13   8   1
 -0.2115095579454060E-01  13  13   8   2
 -0.7607020927296640E-01  13  13   8   7
  0.3551993557672935E+00  13  13   8   8
  0.1679557469209392E-02  13  13   9   1
 -0.4752525023356224E-01  13  13   9   2
  0.5122975706008603E-01  13  13   9   7
  0.9239534296312191E-02  13  13   9   8
  0.3881735923360102E+00  13  13   9   9
  0.1208442727971340E-02  13  13  10   1
  0.2279646868617566E-01  13  13  10   2
 -0.4481511765253592E-02  13  13  10   7
  0.7907821368250587E-02  13  13  10   8
  0.4379129049662311E-02  13  13  10   9