 &FCI NORB=  6,NELEC=  6,MS2= 0,
  ORBSYM=1,1,1,1,1,1,
  ISYM=1,
  OCC=  3,  0,  0,  0,  0,  0,  0,  0,
  CLOSED=  3,  0,  0,  0,  0,  0,  0,  0,
  FOCK=     -0.014687185395,      0.048902436125,      0.058293693840,      0.058293693907,      0.048902436091,
      -0.014687185350,
 /
  0.8258364921575504E+00   1   1   1   1
 -0.8371835576394572E-02   2   1   1   1
  0.9274838861163197E-02   2   1   2   1
  0.4398352832337465E+00   2   2   1   1
 -0.1195825602745876E-01   2   2   2   1
  0.8877916928835141E+00   2   2   2   2
  0.3204554249473418E-02   3   1   1   1
 -0.9231057968604781E-03   3   1   2   1
 -0.6242431320400497E-02   3   1   2   2
  0.4156550723911180E-03   3   1   3   1
 -0.1152867850612360E-01   3   2   1   1
 -0.1505892013210135E-02   3   2   2   1
 -0.1348560992867703E-01   3   2   2   2
 -0.9993688707489198E-03   3   2   3   1
  0.1019522337803233E-01   3   2   3   2
  0.2406830763826753E+00   3   3   1   1
 -0.1169733026842992E-01   3   3   2   1
  0.4587948724870188E+00   3   3   2   2
  0.6945565774555892E-03   3   3   3   1
 -0.1378381297844650E-01   3   3   3   2
  0.8916588282435149E+00   3   3   3   3
 -0.1060329811823089E-02   4   1   1   1
  0.1751157112867523E-03   4   1   2   1
  0.1231815344156537E-02   4   1   2   2
 -0.6448123410344611E-04   4   1   3   1
  0.8664825052676160E-04   4   1   3   2
  0.1294501951861870E-02   4   1   3   3
  0.2172707925438363E-04   4   1   4   1
  0.2434056112421990E-02   4   2   1   1
  0.3341016649989573E-03   4   2   2   1
  0.2648507513625253E-02   4   2   2   2
  0.4890319722763363E-04   4   2   3   1
 -0.1048164549739089E-02   4   2   3   2
 -0.6146064253144946E-02   4   2   3   3
 -0.5764398830736871E-04   4   2   4   1
  0.4490702933550455E-03   4   2   4   2
 -0.3287729857279373E-02   4   3   1   1
  0.7208720106476681E-03   4   3   2   1
 -0.1252527016295536E-01   4   3   2   2
  0.3460198682219452E-03   4   3   3   1
 -0.1460940515268564E-02   4   3   3   2
 -0.1380959879020239E-01   4   3   3   3
  0.1638274204138139E-03   4   3   4   1
 -0.1055713038865057E-02   4   3   4   2
  0.1026598782915328E-01   4   3   4   3
  0.1624982583482353E+00   4   4   1   1
 -0.3138198677781756E-02   4   4   2   1
  0.2473783225039092E+00   4   4   2   2
  0.1653328974635035E-02   4   4   3   1
 -0.1256027001546087E-01   4   4   3   2
  0.4599591421558013E+00   4   4   3   3
 -0.8562413526657237E-03   4   4   4   1
  0.2433538517393086E-02   4   4   4   2
 -0.1380959875551979E-01   4   4   4   3
  0.8916588282477497E+00   4   4   4   4
  0.2819203801094779E-03   5   1   1   1
 -0.4411199572310348E-04   5   1   2   1
 -0.2048552284042635E-03   5   1   2   2
  0.1291078967408372E-04   5   1   3   1
 -0.1217043689061228E-04   5   1   3   2
 -0.2943775871171306E-03   5   1   3   3
 -0.3420418149554931E-05   5   1   4   1
  0.6410445152670447E-05   5   1   4   2
 -0.9707783019351364E-05   5   1   4   3
 -0.1902503003508404E-03   5   1   4   4
  0.1196194891846550E-05   5   1   5   1
 -0.7002926606764864E-03   5   2   1   1
 -0.4839387004058866E-04   5   2   2   1
 -0.1134363701435050E-02   5   2   2   2
 -0.3806291932542502E-06   5   2   3   1
  0.1970775343047267E-03   5   2   3   2
  0.1228754817890713E-02   5   2   3   3
  0.4498533755544340E-05   5   2   4   1
 -0.6420692126116707E-04   5   2   4   2
  0.9109800040207726E-04   5   2   4   3
  0.1228754814384557E-02   5   2   4   4
 -0.3255579390908453E-05   5   2   5   1
  0.2468399617127016E-04   5   2   5   2
  0.7136761159243489E-03   5   3   1   1
 -0.1310853158772872E-03   5   3   2   1
  0.2505610754113823E-02   5   3   2   2
 -0.7502115129497428E-04   5   3   3   1
  0.3297567800608399E-03   5   3   3   2
  0.2433538515880800E-02   5   3   3   3
  0.4157690657520498E-05   5   3   4   1
  0.3603389412140293E-04   5   3   4   2
 -0.1055713039787736E-02   5   3   4   3
 -0.6146064254215450E-02   5   3   4   4
  0.1080350847529295E-04   5   3   5   1
 -0.6420692123953587E-04   5   3   5   2
  0.4490702931945742E-03   5   3   5   3
 -0.1191290910098515E-02   5   4   1   1
  0.1515343169796127E-03   5   4   2   1
 -0.3479449749754381E-02   5   4   2   2
 -0.1049958316204619E-03   5   4   3   1
  0.7554863600269914E-03   5   4   3   2
 -0.1256027001691849E-01   5   4   3   3
 -0.4370276508178719E-04   5   4   4   1
  0.3297567798315392E-03   5   4   4   2
 -0.1460940515329927E-02   5   4   4   3
 -0.1378381297902840E-01   5   4   4   4
 -0.4309792857166993E-04   5   4   5   1
  0.1970775344446737E-03   5   4   5   2
 -0.1048164548855678E-02   5   4   5   3
  0.1019522337830204E-01   5   4   5   4
  0.1225337226577120E+00   5   5   1   1
 -0.1075177155999127E-02   5   5   2   1
  0.1655027731953485E+00   5   5   2   2
  0.3917678565613855E-03   5   5   3   1
 -0.3479449749210405E-02   5   5   3   2
  0.2473783225017604E+00   5   5   3   3
 -0.5938462247061325E-03   5   5   4   1
  0.2505610754556971E-02   5   5   4   2
 -0.1252527014501192E-01   5   5   4   3
  0.4587948724888595E+00   5   5   4   4
  0.2769303771483957E-03   5   5   5   1
 -0.1134363713113845E-02   5   5   5   2
  0.2648507512690954E-02   5   5   5   3
 -0.1348560992644784E-01   5   5   5   4
  0.8877916928816634E+00   5   5   5   5
 -0.6173883996703649E-04   6   1   1   1
  0.9442605067945965E-05   6   1   2   1
  0.3588314771364842E-04   6   1   2   2
 -0.2667304874995931E-05   6   1   3   1
  0.2766222876470318E-05   6   1   3   2
  0.5290163357117203E-04   6   1   3   3
  0.6143696846190202E-06   6   1   4   1
 -0.8810952756626498E-06   6   1   4   2
  0.3391562708337617E-06   6   1   4   3
  0.5290163460339128E-04   6   1   4   4
 -0.1677072752689724E-06   6   1   5   1
  0.3078276902014021E-06   6   1   5   2
 -0.8810952433543670E-06   6   1   5   3
  0.2766222703956917E-05   6   1   5   4
  0.3588315242714845E-04   6   1   5   5
  0.5719148117304172E-07   6   1   6   1
  0.1556997833939383E-03   6   2   1   1
  0.7758186306279909E-05   6   2   2   1
  0.2769303728803391E-03   6   2   2   2
  0.1181212528418273E-06   6   2   3   1
 -0.4309792851198534E-04   6   2   3   2
 -0.1902503023444799E-03   6   2   3   3
 -0.4147790427133742E-06   6   2   4   1
  0.1080350848830941E-04   6   2   4   2
 -0.9707783059957894E-05   6   2   4   3
 -0.2943775868767486E-03   6   2   4   4
  0.2690462355070318E-06   6   2   5   1
 -0.3255579383256417E-05   6   2   5   2
  0.6410445152723126E-05   6   2   5   3
 -0.1217043690220265E-04   6   2   5   4
 -0.2048552263673306E-03   6   2   5   5
 -0.1677072744154899E-06   6   2   6   1
  0.1196194894247825E-05   6   2   6   2
 -0.1697167977327448E-03   6   3   1   1
  0.3039467998905655E-04   6   3   2   1
 -0.5938462242362866E-03   6   3   2   2
  0.1188957400058177E-04   6   3   3   1
 -0.4370276526802994E-04   6   3   3   2
 -0.8562413509976458E-03   6   3   3   3
 -0.2900013785995389E-05   6   3   4   1
  0.4157690579690852E-05   6   3   4   2
  0.1638274211978508E-03   6   3   4   3
  0.1294501952153393E-02   6   3   4   4
 -0.4147790305118266E-06   6   3   5   1
  0.4498533739228646E-05   6   3   5   2
 -0.5764398837448507E-04   6   3   5   3
  0.8664825039390709E-04   6   3   5   4
  0.1231815342263234E-02   6   3   5   5
  0.6143696707904612E-06   6   3   6   1
 -0.3420418156607372E-05   6   3   6   2
  0.2172707926775066E-04   6   3   6   3
  0.8356764274221386E-04   6   4   1   1
 -0.2245108936711984E-04   6   4   2   1
  0.3917678634619402E-03   6   4   2   2
  0.1426720412862628E-04   6   4   3   1
 -0.1049958322680718E-03   6   4   3   2
  0.1653328991419386E-02   6   4   3   3
  0.1188957394149509E-04   6   4   4   1
 -0.7502115119390482E-04   6   4   4   2
  0.3460198676612538E-03   6   4   4   3
  0.6945566130667133E-03   6   4   4   4
  0.1181211835453533E-06   6   4   5   1
 -0.3806289948740789E-06   6   4   5   2
  0.4890319672084020E-04   6   4   5   3
 -0.9993688713042701E-03   6   4   5   4
 -0.6242431319073022E-02   6   4   5   5
 -0.2667304822907256E-05   6   4   6   1
  0.1291078967081748E-04   6   4   6   2
 -0.6448123393243777E-04   6   4   6   3
  0.4156550722082610E-03   6   4   6   4
 -0.4521849485997788E-03   6   5   1   1
  0.3204172210615115E-04   6   5   2   1
 -0.1075177158013589E-02   6   5   2   2
 -0.2245108922934619E-04   6   5   3   1
  0.1515343170954098E-03   6   5   3   2
 -0.3138198681999048E-02   6   5   3   3
  0.3039467997336300E-04   6   5   4   1
 -0.1310853159257940E-03   6   5   4   2
  0.7208720102302253E-03   6   5   4   3
 -0.1169733027861545E-01   6   5   4   4
  0.7758186357211796E-05   6   5   5   1
 -0.4839386978120280E-04   6   5   5   2
  0.3341016647837985E-03   6   5   5   3
 -0.1505892013146642E-02   6   5   5   4
 -0.1195825604657810E-01   6   5   5   5
  0.9442604990627908E-05   6   5   6   1
 -0.4411199590027321E-04   6   5   6   2
  0.1751157111568505E-03   6   5   6   3
 -0.9231057965902100E-03   6   5   6   4
  0.9274838861318198E-02   6   5   6   5
  0.9725366225646084E-01   6   6   1   1
 -0.4521849474593449E-03   6   6   2   1
  0.1225337226578911E+00   6   6   2   2
  0.8356763914859136E-04   6   6   3   1
 -0.1191290909926812E-02   6   6   3   2
  0.1624982583481505E+00   6   6   3   3
 -0.1697167979958928E-03   6   6   4   1
  0.7136761162122376E-03   6   6   4   2
 -0.3287729850620737E-02   6   6   4   3
  0.2406830763838529E+00   6   6   4   4
  0.1556997851948289E-03   6   6   5   1
 -0.7002926657966330E-03   6   6   5   2
  0.2434056111433505E-02   6   6   5   3
 -0.1152867850465578E-01   6   6   5   4
  0.4398352832334819E+00   6   6   5   5
 -0.6173882877235238E-04   6   6   6   1
  0.2819203845587136E-03   6   6   6   2
 -0.1060329813926918E-02   6   6   6   3
  0.3204554218351086E-02   6   6   6   4
 -0.8371835561341717E-02   6   6   6   5
  0.8258364921596679E+00   6   6   6   6
 -0.1462716975780451E+01   1   1   0   0
 -0.2461445429341527E+00   2   1   0   0
 -0.1779525008252377E+01   2   2   0   0
  0.6062567883345266E-01   3   1   0   0
 -0.2589090039070830E+00   3   2   0   0
 -0.1892299154482876E+01   3   3   0   0
 -0.1497070277045434E-01   4   1   0   0
  0.6207741040269898E-01   4   2   0   0
 -0.2588316440191720E+00   4   3   0   0
 -0.1892299154448356E+01   4   4   0   0
  0.3999359750913865E-02   5   1   0   0
 -0.1589428950610440E-01   5   2   0   0
  0.6207741037800524E-01   5   3   0   0
 -0.2589090038946664E+00   5   4   0   0
 -0.1779525008271365E+01   5   5   0   0
 -0.9990654646227855E-03   6   1   0   0
  0.3999359763770640E-02   6   2   0   0
 -0.1497070278283864E-01   6   3   0   0
  0.6062567882026451E-01   6   4   0   0
 -0.2461445429346251E+00   6   5   0   0
 -0.1462716975752836E+01   6   6   0   0
  0.4350000000000000E+01   0   0   0   0
