 &FCI NORB= 14,NELEC= 10,MS2= 0,
    ORBSYM=1,1,1,1,1,1,1,1,1,1,1,1,1,1,
    ISYM=1,
 &End
   5.92946559391461                1           1           1           1
 -0.460496112874226                1           1           1           2
 -0.409026121690002                1           1           1           9
 -0.761067002915593                1           1           2           1
   1.45008415878948                1           1           2           2
  0.513563930526911                1           1           2           9
   1.41187939878412                1           1           3           3
 -0.522383873980935                1           1           3           6
  8.734771132996672E-002           1           1           3           7
  0.270241811156804                1           1           3           8
   1.41187939878412                1           1           4           4
 -2.203769412617656E-002           1           1           4           6
 -0.576537608680867                1           1           4           7
  0.143749423586219                1           1           4           8
   1.41187939878412                1           1           5           5
 -0.283151194963916                1           1           5           6
 -0.116275251318525                1           1           5           7
 -0.509755468522450                1           1           5           8
 -0.620204196604715                1           1           6           3
 -2.616441866091107E-002           1           1           6           4
 -0.336173393049017                1           1           6           5
   1.17954988305355                1           1           6           6
  0.103704229454525                1           1           7           3
 -0.684498626803650                1           1           7           4
 -0.138048669610442                1           1           7           5
   1.17954988305355                1           1           7           7
  0.320846629702098                1           1           8           3
  0.170667587971783                1           1           8           4
 -0.605211026922636                1           1           8           5
   1.17954988305355                1           1           8           8
 -0.678245062551481                1           1           9           1
  0.652105858241050                1           1           9           2
   1.16386404488200                1           1           9           9
   1.25743535498060                1           1          10          10
   1.25743535017817                1           1          11          11
 -1.563252754077499E-008           1           1          11          12
 -1.563252754084762E-008           1           1          12          11
   1.25743532308329                1           1          12          12
  1.871440345867024E-008           1           1          12          13
  1.871440345911329E-008           1           1          13          12
   1.25743534709216                1           1          13          13
   1.25743530343104                1           1          14          14
 -0.460496112874226                1           2           1           1
  5.934813378482767E-002           1           2           1           2
  5.387317211109860E-002           1           2           1           9
  0.102212545993482                1           2           2           1
 -6.258497354910350E-002           1           2           2           2
  4.166979818674213E-003           1           2           2           9
 -5.361838698586966E-002           1           2           3           3
 -1.179526317724277E-002           1           2           3           6
  1.972283782834357E-003           1           2           3           7
  6.101974894051905E-003           1           2           3           8
 -5.361838698586974E-002           1           2           4           4
 -4.976041853223830E-004           1           2           4           6
 -1.301803743317167E-002           1           2           4           7
  3.245816663242334E-003           1           2           4           8
 -5.361838698586975E-002           1           2           5           5
 -6.393464710344554E-003           1           2           5           6
 -2.625458515497931E-003           1           2           5           7
 -1.151011776347527E-002           1           2           5           8
 -6.915807640522815E-003           1           2           6           3
 -2.917556628535628E-004           1           2           6           4
 -3.748621071763970E-003           1           2           6           5
 -6.656921960324635E-002           1           2           6           6
  1.156390921477810E-003           1           2           7           3
 -7.632745568461812E-003           1           2           7           4
 -1.539360825486951E-003           1           2           7           5
 -6.656921960324633E-002           1           2           7           7
  3.577714541883339E-003           1           2           8           3
  1.903089684569021E-003           1           2           8           4
 -6.748620965536356E-003           1           2           8           5
 -6.656921960324626E-002           1           2           8           8
  9.156943230138265E-002           1           2           9           1
 -5.156709953901620E-004           1           2           9           2
 -6.988175987911251E-002           1           2           9           9
 -4.671531772377202E-002           1           2          10          10
 -1.351450035265950E-008           1           2          10          11
 -2.928274420186656E-008           1           2          10          12
  1.614555612884285E-008           1           2          10          13
 -1.351450035269283E-008           1           2          11          10
 -4.671533329806193E-002           1           2          11          11
 -5.069638284789381E-008           1           2          11          12
  2.793980145549160E-008           1           2          11          13
 -2.928274420187483E-008           1           2          12          10
 -5.069638284789848E-008           1           2          12          11
 -4.671542116695322E-002           1           2          12          12
  6.069092550745262E-008           1           2          12          13
  1.614555612884136E-008           1           2          13          10
  2.793980145547931E-008           1           2          13          11
  6.069092550745264E-008           1           2          13          12
 -4.671534330601219E-002           1           2          13          13
 -4.671548489932212E-002           1           2          14          14
  1.549347123909096E-002           1           3           1           3
 -1.496247003770437E-002           1           3           1           6
  2.501871858480032E-003           1           3           1           7
  7.740447597576899E-003           1           3           1           8
  2.785864638883070E-004           1           3           2           3
 -9.559844792126881E-003           1           3           2           6
  1.598499886488571E-003           1           3           2           7
  4.945538902865508E-003           1           3           2           8
  4.749964449862937E-002           1           3           3           1
  3.163863447299402E-003           1           3           3           2
  1.420393392557571E-002           1           3           3           9
  1.238874910180052E-003           1           3           3          10
  2.424304243091500E-003           1           3           3          11
  4.026613276124573E-003           1           3           3          12
 -2.318576188284006E-003           1           3           3          13
  3.464829515844158E-003           1           3           3          14
 -9.990505776064440E-004           1           3           4          10
 -2.402821478794791E-003           1           3           4          11
 -1.015510343860183E-003           1           3           4          12
 -4.790336883846703E-003           1           3           4          13
  1.309354480108290E-005           1           3           4          14
 -3.969853483070307E-005           1           3           5          10
 -4.345548772156926E-003           1           3           5          11
  3.021410948425233E-003           1           3           5          12
  1.549066956374951E-003           1           3           5          13
  5.801065310587061E-004           1           3           5          14
 -4.729206119575703E-002           1           3           6           1
 -1.161566315062105E-002           1           3           6           2
 -2.640712045024252E-003           1           3           6           9
  8.446628155826435E-004           1           3           6          10
 -2.363895046000194E-005           1           3           6          11
  4.040550486680082E-003           1           3           6          12
 -1.208105931947350E-003           1           3           6          13
  2.716711166178342E-003           1           3           6          14
  7.907696839961925E-003           1           3           7           1
  1.942252895470522E-003           1           3           7           2
  4.415529745521252E-004           1           3           7           9
 -9.478832076997607E-004           1           3           7          10
 -2.893072028815637E-003           1           3           7          11
 -8.061793280735321E-004           1           3           7          12
 -3.274074114924972E-003           1           3           7          13
 -3.132123925691606E-004           1           3           7          14
  2.446532695101189E-002           1           3           8           1
  6.009063456897103E-003           1           3           8           2
  1.366104202935229E-003           1           3           8           9
 -2.908633940581051E-004           1           3           8          10
 -3.474464388874060E-003           1           3           8          11
  8.231950728568682E-004           1           3           8          12
  2.896354722706732E-003           1           3           8          13
 -8.839837399054846E-004           1           3           8          14
  1.561320424174644E-002           1           3           9           3
 -2.894187448446849E-003           1           3           9           6
  4.839365500608371E-004           1           3           9           7
  1.497233159085060E-003           1           3           9           8
 -1.366168837114467E-003           1           3          10           3
  1.101793785947416E-003           1           3          10           4
  4.378418893932011E-005           1           3          10           5
  1.907137283543401E-003           1           3          10           6
 -2.139973847130356E-003           1           3          10           7
 -6.567633526365529E-004           1           3          10           8
 -2.673425602757530E-003           1           3          11           3
  2.649927075802994E-003           1           3          11           4
  4.792437434950520E-003           1           3          11           5
 -5.298632712030931E-005           1           3          11           6
 -6.531464273988879E-003           1           3          11           7
 -7.844160838837986E-003           1           3          11           8
 -4.440317789246410E-003           1           3          12           3
  1.119956254637662E-003           1           3          12           4
 -3.332114605728454E-003           1           3          12           5
  9.122747631952956E-003           1           3          12           6
 -1.820128568065748E-003           1           3          12           7
  1.858066475861711E-003           1           3          12           8
  2.556790590388025E-003           1           3          13           3
  5.282952901546067E-003           1           3          13           4
 -1.708374634268655E-003           1           3          13           5
 -2.727878738376117E-003           1           3          13           6
 -7.391517719164450E-003           1           3          13           7
  6.539051140223866E-003           1           3          13           8
 -3.820824327548007E-003           1           3          14           3
 -1.443291399971238E-005           1           3          14           4
 -6.397322681324612E-004           1           3          14           5
  6.133936675143705E-003           1           3          14           6
 -7.071874984017129E-004           1           3          14           7
 -1.995961260142504E-003           1           3          14           8
  1.549347123909098E-002           1           4           1           4
 -6.312184477483419E-004           1           4           1           6
 -1.651357770629046E-002           1           4           1           7
  4.117367611207271E-003           1           4           1           8
  2.785864638883279E-004           1           4           2           4
 -4.032990793094534E-004           1           4           2           6
 -1.055088093323153E-002           1           4           2           7
  2.630674963163417E-003           1           4           2           8
 -9.990505776064484E-004           1           4           3          10
 -2.402821478794788E-003           1           4           3          11
 -1.015510343860178E-003           1           4           3          12
 -4.790336883846683E-003           1           4           3          13
  1.309354480108154E-005           1           4           3          14
  4.749964449862944E-002           1           4           4           1
  3.163863447299430E-003           1           4           4           2
  1.420393392557570E-002           1           4           4           9
 -3.244505365158686E-003           1           4           4          10
 -1.582653134836812E-003           1           4           4          11
 -4.002560424851295E-003           1           4           4          12
  2.326040619421415E-003           1           4           4          13
  2.557981559286628E-003           1           4           4          14
 -4.659274555863065E-003           1           4           5          10
  1.244368195460095E-003           1           4           5          11
  2.115592958301177E-003           1           4           5          12
 -1.056852844209644E-004           1           4           5          13
 -1.734046372118389E-003           1           4           5          14
 -1.995099832018478E-003           1           4           6           1
 -4.900274383191086E-004           1           4           6           2
 -1.114031409125736E-004           1           4           6           9
 -2.632087794193643E-003           1           4           6          10
 -1.290459238665678E-003           1           4           6          11
 -2.712209602586824E-005           1           4           6          12
 -3.414217705165709E-003           1           4           6          13
 -5.885819802531910E-004           1           4           6          14
 -5.219466608646899E-002           1           4           7           1
 -1.281981889116649E-002           1           4           7           2
 -2.914465555857892E-003           1           4           7           9
 -3.199440768299795E-003           1           4           7          10
 -7.674609607086079E-004           1           4           7          11
 -2.714399654663236E-003           1           4           7          12
  2.404029710853055E-003           1           4           7          13
  1.750130185359570E-003           1           4           7          14
  1.301381393205564E-002           1           4           8           1
  3.196394386658273E-003           1           4           8           2
  7.266702768532959E-004           1           4           8           9
 -2.255135633768345E-003           1           4           8          10
  2.079450192262610E-003           1           4           8          11
  2.653218435292388E-003           1           4           8          12
  1.247332104752545E-003           1           4           8          13
 -1.726968444232568E-003           1           4           8          14
  1.561320424174643E-002           1           4           9           4
 -1.220964522634141E-004           1           4           9           6
 -3.194217880207052E-003           1           4           9           7
  7.964215554630422E-004           1           4           9           8
  1.101793785947412E-003           1           4          10           3
  3.578059410279045E-003           1           4          10           4
  5.138440770822608E-003           1           4          10           5
 -5.942197700190828E-003           1           4          10           6
 -7.223294951217029E-003           1           4          10           7
 -5.091117556783791E-003           1           4          10           8
  2.649927075802996E-003           1           4          11           3
  1.745232916313188E-003           1           4          11           4
 -1.372299728850918E-003           1           4          11           5
 -2.913312288446697E-003           1           4          11           6
 -1.732999816875805E-003           1           4          11           7
  4.694740218150801E-003           1           4          11           8
  1.119956254637670E-003           1           4          12           3
  4.413767876311980E-003           1           4          12           4
 -2.333061729240594E-003           1           4          12           5
 -6.113686779397122E-005           1           4          12           6
 -6.128904022771389E-003           1           4          12           7
  5.990313096594099E-003           1           4          12           8
  5.282952901546078E-003           1           4          13           3
 -2.565031881955202E-003           1           4          13           4
  1.165097866879726E-004           1           4          13           5
 -7.708006252485093E-003           1           4          13           6
  5.427805330571772E-003           1           4          13           7
  2.815790778329907E-003           1           4          13           8
 -1.443291399971666E-005           1           4          14           3
 -2.820806430755834E-003           1           4          14           4
  1.912202926866525E-003           1           4          14           5
 -1.328934979364320E-003           1           4          14           6
  3.951538085128223E-003           1           4          14           7
 -3.899277901935658E-003           1           4          14           8
  1.549347123909097E-002           1           5           1           5
 -8.110206845593420E-003           1           5           1           6
 -3.330433902413054E-003           1           5           1           7
 -1.460075876040820E-002           1           5           1           8
  2.785864638883001E-004           1           5           2           5
 -5.181786060760156E-003           1           5           2           6
 -2.127886045370548E-003           1           5           2           7
 -9.328739656290348E-003           1           5           2           8
 -3.969853483070957E-005           1           5           3          10
 -4.345548772156954E-003           1           5           3          11
  3.021410948425243E-003           1           5           3          12
  1.549066956374950E-003           1           5           3          13
  5.801065310587169E-004           1           5           3          14
 -4.659274555863079E-003           1           5           4          10
  1.244368195460085E-003           1           5           4          11
  2.115592958301177E-003           1           5           4          12
 -1.056852844209598E-004           1           5           4          13
 -1.734046372118396E-003           1           5           4          14
  4.749964449862939E-002           1           5           5           1
  3.163863447299395E-003           1           5           5           2
  1.420393392557570E-002           1           5           5           9
  2.005630454978631E-003           1           5           5          10
 -8.416511082546749E-004           1           5           5          11
 -2.405285127325042E-005           1           5           5          12
 -7.464431137411357E-006           1           5           5          13
 -6.022811075130800E-003           1           5           5          14
 -2.563402950753030E-002           1           5           6           1
 -6.296114917047987E-003           1           5           6           2
 -1.431362659429107E-003           1           5           6           9
  6.116589857274282E-004           1           5           6          10
 -3.414081775618518E-003           1           5           6          11
  2.226739675892502E-003           1           5           6          12
  1.107462386930112E-003           1           5           6          13
 -1.981980681039726E-003           1           5           6          14
 -1.052654297882936E-002           1           5           7           1
 -2.585482093421354E-003           1           5           7           2
 -5.877850982556505E-004           1           5           7           9
 -3.370951569453285E-003           1           5           7          10
  1.374885782320397E-003           1           5           7          11
  1.311310585925176E-003           1           5           7          12
 -2.711798806953182E-004           1           5           7          13
 -2.408766746324936E-003           1           5           7          14
 -4.614879595826749E-002           1           5           8           1
 -1.133485949024505E-002           1           5           8           2
 -2.576873967195512E-003           1           5           8           9
  2.343393758133893E-003           1           5           8          10
  7.795200356147170E-004           1           5           8          11
 -1.558986239640642E-003           1           5           8          12
 -5.604417588077845E-004           1           5           8          13
 -4.096923777522661E-003           1           5           8          14
  1.561320424174644E-002           1           5           9           5
 -1.568755613055563E-003           1           5           9           6
 -6.442051328394600E-004           1           5           9           7
 -2.824221711768736E-003           1           5           9           8
  4.378418893931531E-005           1           5          10           3
  5.138440770822601E-003           1           5          10           4
 -2.211890573164581E-003           1           5          10           5
  1.380885798285299E-003           1           5          10           6
 -7.610241917302898E-003           1           5          10           7
  5.290432992154482E-003           1           5          10           8
  4.792437434950503E-003           1           5          11           3
 -1.372299728850927E-003           1           5          11           4
  9.281926864443592E-004           1           5          11           5
 -7.707652183979525E-003           1           5          11           6
  3.104023169414921E-003           1           5          11           7
  1.759802254062895E-003           1           5          11           8
 -3.332114605728444E-003           1           5          12           3
 -2.333061729240594E-003           1           5          12           4
  2.654991293446029E-005           1           5          12           5
  5.027154214528914E-003           1           5          12           6
  2.960635621820760E-003           1           5          12           7
 -3.519592255165599E-003           1           5          12           8
 -1.708374634268657E-003           1           5          13           3
  1.165097866879786E-004           1           5          13           4
  8.241291567157860E-006           1           5          13           5
  2.500208239961289E-003           1           5          13           6
 -6.123083443450016E-004           1           5          13           7
 -1.265208269022597E-003           1           5          13           8
 -6.397322681324521E-004           1           5          14           3
  1.912202926866518E-003           1           5          14           4
  6.641630758303825E-003           1           5          14           5
 -4.475081311704546E-003           1           5          14           6
 -5.438673752019158E-003           1           5          14           7
 -9.250254519666276E-003           1           5          14           8
 -1.496247003770439E-002           1           6           1           3
 -6.312184477483406E-004           1           6           1           4
 -8.110206845593427E-003           1           6           1           5
  1.873746509582241E-002           1           6           1           6
  7.129577290202610E-004           1           6           2           3
  3.007739162640653E-005           1           6           2           4
  3.864492052413904E-004           1           6           2           5
  9.422369636541982E-003           1           6           2           6
 -4.412155327707903E-002           1           6           3           1
 -1.672137412673746E-003           1           6           3           2
 -1.112381144303860E-002           1           6           3           9
 -1.123766903688096E-003           1           6           3          10
  3.114335333766538E-005           1           6           3          11
 -5.375456048324762E-003           1           6           3          12
  1.607410201942612E-003           1           6           3          13
 -3.614370093953507E-003           1           6           3          14
 -1.861346308572225E-003           1           6           4           1
 -7.054209494756309E-005           1           6           4           2
 -4.692777980123711E-004           1           6           4           9
  3.501253447138655E-003           1           6           4          10
  1.716572402402992E-003           1           6           4          11
  3.600394838276707E-005           1           6           4          12
  4.541715524543098E-003           1           6           4          13
  7.830642400007796E-004           1           6           4          14
 -2.391549807780817E-002           1           6           5           1
 -9.063597291667572E-004           1           6           5           2
 -6.029513274685464E-003           1           6           5           9
 -8.136446859217956E-004           1           6           5          10
  4.541497339353748E-003           1           6           5          11
 -2.962106952472475E-003           1           6           5          12
 -1.473169764345189E-003           1           6           5          13
  2.636915543107729E-003           1           6           5          14
  5.718260470387348E-002           1           6           6           1
  1.196611685532172E-002           1           6           6           2
  3.001277644219924E-003           1           6           6           9
 -8.594450475504123E-004           1           6           6          10
  1.556100556723917E-003           1           6           6          11
 -4.233105806235350E-003           1           6           6          12
  6.066654651392086E-004           1           6           6          13
 -1.305167281706935E-003           1           6           6          14
  2.347970601657623E-003           1           6           7          10
  1.759109158228772E-003           1           6           7          11
  1.693694695493592E-004           1           6           7          12
  2.678461994030447E-003           1           6           7          13
  1.246628188883657E-003           1           6           7          14
 -7.134151986873914E-004           1           6           8          10
  2.391693361999911E-003           1           6           8          11
 -7.267201063502446E-005           1           6           8          12
 -2.134297537927900E-003           1           6           8          13
  2.563844371073239E-003           1           6           8          14
 -1.250762996077844E-002           1           6           9           3
 -5.276566468609924E-004           1           6           9           4
 -6.779593601486545E-003           1           6           9           5
  3.241944722745090E-003           1           6           9           6
  9.094927537004662E-004           1           6          10           3
 -2.833743982821137E-003           1           6          10           4
  6.585236841364431E-004           1           6          10           5
 -1.932834275989103E-003           1           6          10           6
  5.280016685438064E-003           1           6          10           7
 -1.604211889020989E-003           1           6          10           8
 -2.525515831328830E-005           1           6          11           3
 -1.389313530873699E-003           1           6          11           4
 -3.675663358063231E-003           1           6          11           5
  3.499020480772664E-003           1           6          11           6
  3.955818662592718E-003           1           6          11           7