  &FCI NORB=  6,NELEC=  6,MS2=  0,
  ORBSYM= 1, 1, 1, 1, 1, 1,
  ISYM=0
 &END
    0.76280453698        1    1    1    1
    0.41118518472E-01    2    1    2    1
    0.68056750003        2    2    1    1
    0.76280453698        2    2    2    2
    0.41121733282E-01    3    1    3    1
    0.41121733282E-01    3    2    3    2
    0.68059030757        3    3    1    1
    0.68059030757        3    3    2    2
    0.76285432605        3    3    3    3
   -0.82962321834E-03    4    1    1    1
   -0.69254902048E-03    4    1    2    2
   -0.64734022593E-03    4    1    3    3
    0.21289979619E-05    4    1    4    1
   -0.68537098935E-04    4    2    2    1
    0.20559939188E-06    4    2    4    2
   -0.31927252399E-04    4    3    3    1
    0.13824962679E-04    4    3    4    3
    0.17229215815        4    4    1    1
    0.17213169206        4    4    2    2
    0.17826036401        4    4    3    3
    0.28221271029E-03    4    4    4    1
    0.76280659835        4    4    4    4
   -0.68537098935E-04    5    1    2    1
    0.20559939188E-06    5    1    4    2
    0.20559939188E-06    5    1    5    1
   -0.69254902048E-03    5    2    1    1
   -0.82962321834E-03    5    2    2    2
   -0.64734022593E-03    5    2    3    3
    0.17177991785E-05    5    2    4    1
    0.26475074868E-03    5    2    4    4
    0.21289979619E-05    5    2    5    2
   -0.31927252399E-04    5    3    3    2
    0.13824962679E-04    5    3    5    3
    0.80233040882E-04    5    4    2    1
    0.87309808021E-05    5    4    4    2
    0.87309808021E-05    5    4    5    1
    0.41118743683E-01    5    4    5    4
    0.17213169206        5    5    1    1
    0.17229215815        5    5    2    2
    0.17826036401        5    5    3    3
    0.26475074868E-03    5    5    4    1
    0.68056911098        5    5    4    4
    0.28221271029E-03    5    5    5    2
    0.76280659835        5    5    5    5
    0.58593558858E-03    6    1    3    1
   -0.13127708860E-05    6    1    4    3
    0.21903236011E-04    6    1    6    1
    0.58593558858E-03    6    2    3    2
   -0.13127708860E-05    6    2    5    3
    0.21903236011E-04    6    2    6    2
    0.59861897532E-02    6    3    1    1
    0.59861897532E-02    6    3    2    2
    0.67318872988E-02    6    3    3    3
   -0.14133563387E-04    6    3    4    1
   -0.25284006719E-02    6    3    4    4
   -0.14133563387E-04    6    3    5    2
   -0.25284006719E-02    6    3    5    5
    0.15835534838E-03    6    3    6    3
   -0.31978771525E-03    6    4    3    1
   -0.11024989991E-03    6    4    4    3
    0.40051670293E-04    6    4    6    1
    0.41129780961E-01    6    4    6    4
   -0.31978771525E-03    6    5    3    2
   -0.11024989991E-03    6    5    5    3
    0.40051670293E-04    6    5    6    2
    0.41129780961E-01    6    5    6    5
    0.17831831703        6    6    1    1
    0.17831831703        6    6    2    2
    0.18578844850        6    6    3    3
    0.29825860161E-03    6    6    4    1
    0.68064957512        6    6    4    4
    0.29825860161E-03    6    6    5    2
    0.68064957512        6    6    5    5
   -0.30480054046E-02    6    6    6    3
    0.76297921126        6    6    6    6
    -2.2779263912        1    1    0    0
    -2.2779263912        2    2    0    0
    -2.2974088397        3    3    0    0
   -0.11991213040E-02    4    1    0    0
    -2.2779218757        4    4    0    0
   -0.11991213040E-02    5    2    0    0
    -2.2779218757        5    5    0    0
    0.89622924817E-02    6    3    0    0
    -2.2971050141        6    6    0    0
     0.0000000000        1    0    0    0
     0.0000000000        2    0    0    0
     0.0000000000        3    0    0    0
     0.0000000000        4    0    0    0
     0.0000000000        5    0    0    0
     0.0000000000        6    0    0    0
    -99.155541731        0    0    0    0
