  &FCI NORB= 10,NELEC=  6,MS2=  0,
  ORBSYM= 1, 1, 1, 1, 1, 1, 1, 1, 1, 1,
  ISYM=0
 &END
     1.6327627870        1    1    1    1
   -0.13816660653        2    1    1    1
    0.17265361682E-01    2    1    2    1
    0.34397810102        2    2    1    1
   -0.53019371999E-02    2    2    2    1
    0.25068860113        2    2    2    2
    0.42029080786E-02    3    1    3    1
    0.63322371809E-02    3    2    3    1
    0.50916769052E-01    3    2    3    2
    0.29004307384        3    3    1    1
   -0.35754113716E-02    3    3    2    1
    0.22795394153        3    3    2    2
    0.22612217356        3    3    3    3
    0.42029080786E-02    4    1    4    1
    0.63322371809E-02    4    2    4    1
    0.50916769052E-01    4    2    4    2
    0.12372667071E-01    4    3    4    3
    0.29004307384        4    4    1    1
   -0.35754113716E-02    4    4    2    1
    0.22795394153        4    4    2    2
    0.20137683942        4    4    3    3
    0.22612217356        4    4    4    4
    0.23510693561E-01    5    1    1    1
   -0.40301071636E-02    5    1    2    1
    0.19240472786E-02    5    1    2    2
    0.24144100660E-02    5    1    3    3
    0.24144100660E-02    5    1    4    4
    0.57751228916E-02    5    1    5    1
   -0.24847734942E-01    5    2    1    1
   -0.82183473553E-03    5    2    2    1
   -0.80688684698E-02    5    2    2    2
   -0.75495433303E-03    5    2    3    3
   -0.75495433303E-03    5    2    4    4
    0.43308083154E-02    5    2    5    1
    0.29337139736E-01    5    2    5    2
   -0.26878675252E-03    5    3    3    1
    0.19061411205E-02    5    3    3    2
    0.11681694683E-01    5    3    5    3
   -0.26878675252E-03    5    4    4    1
    0.19061411205E-02    5    4    4    2
    0.11681694683E-01    5    4    5    4
    0.30377515269        5    5    1    1
   -0.51275560816E-02    5    5    2    1
    0.22083460664        5    5    2    2
    0.20326768821        5    5    3    3
    0.20326768821        5    5    4    4
    0.28444005389E-02    5    5    5    1
    0.10673539613E-01    5    5    5    2
    0.23222955692        5    5    5    5
    0.75043896954E-02    6    1    1    1
   -0.10585776208E-02    6    1    2    1
    0.19681432522E-03    6    1    2    2
    0.12946913459E-03    6    1    3    3
    0.12946913459E-03    6    1    4    4
    0.63388586124E-03    6    1    5    1
    0.39256197191E-03    6    1    5    2
    0.21635429134E-03    6    1    5    5
    0.19848698782E-03    6    1    6    1
   -0.97992463811E-02    6    2    1    1
    0.41363792273E-03    6    2    2    1
   -0.41124456245E-02    6    2    2    2
   -0.40070999477E-02    6    2    3    3
   -0.40070999477E-02    6    2    4    4
    0.14415017417E-03    6    2    5    1
    0.95133002289E-03    6    2    5    2
   -0.24134011285E-02    6    2    5    5
    0.58481893008E-03    6    2    6    1
    0.44589483716E-02    6    2    6    2
   -0.32605732421E-03    6    3    3    1
   -0.23156361648E-02    6    3    3    2
    0.79370563794E-03    6    3    5    3
    0.32058144665E-03    6    3    6    3
   -0.32605732421E-03    6    4    4    1
   -0.23156361648E-02    6    4    4    2
    0.79370563794E-03    6    4    5    4
    0.32058144665E-03    6    4    6    4
    0.85194148321E-02    6    5    1    1
   -0.64975599013E-03    6    5    2    1
    0.25818484021E-02    6    5    2    2
    0.32449377861E-02    6    5    3    3
    0.32449377861E-02    6    5    4    4
    0.13754341276E-03    6    5    5    1
    0.22918823421E-02    6    5    5    2
    0.42153705731E-02    6    5    5    5
   -0.32271116318E-03    6    5    6    1
   -0.36448704566E-02    6    5    6    2
    0.42347146970E-02    6    5    6    5
    0.20051849601        6    6    1    1
    0.41735324022E-02    6    6    2    1
    0.18878583186        6    6    2    2
    0.15749127301        6    6    3    3
    0.15749127301        6    6    4    4
   -0.12885230094E-02    6    6    5    1
   -0.35609078534E-01    6    6    5    2
    0.16750323527        6    6    5    5
    0.75043896954E-02    6    6    6    1
    0.66793041000E-01    6    6    6    2
   -0.69455147750E-01    6    6    6    5
     1.6327627870        6    6    6    6
    0.66793041000E-01    7    1    1    1
   -0.71513328264E-02    7    1    2    1
    0.65121751160E-02    7    1    2    2
    0.53241021228E-02    7    1    3    3
    0.53241021228E-02    7    1    4    4
    0.32575861986E-02    7    1    5    1
    0.18623498631E-02    7    1    5    2
    0.62023397312E-02    7    1    5    5
    0.58481893008E-03    7    1    6    1
   -0.53514496182E-03    7    1    6    2
    0.10712954171E-02    7    1    6    5
   -0.97992463811E-02    7    1    6    6
    0.44589483716E-02    7    1    7    1
   -0.24959346753E-01    7    2    1    1
    0.79717594725E-03    7    2    2    1
   -0.10346561190E-01    7    2    2    2
   -0.78447694255E-02    7    2    3    3
   -0.78447694255E-02    7    2    4    4
    0.38311928397E-03    7    2    5    1
    0.54438691459E-02    7    2    5    2
   -0.40602638310E-02    7    2    5    5
    0.21941615579E-04    7    2    6    1
    0.28662672467E-04    7    2    6    2
    0.10642128564E-02    7    2    6    5
   -0.24959346753E-01    7    2    6    6
    0.28662672467E-04    7    2    7    1
    0.32376065304E-02    7    2    7    2
   -0.21173245038E-03    7    3    3    1
    0.38589709967E-03    7    3    3    2
    0.13620273913E-02    7    3    5    3
    0.16799583491E-03    7    3    6    3
    0.12651804505E-02    7    3    7    3
   -0.21173245038E-03    7    4    4    1
    0.38589709967E-03    7    4    4    2
    0.13620273913E-02    7    4    5    4
    0.16799583491E-03    7    4    6    4
    0.12651804505E-02    7    4    7    4
    0.25571416458E-01    7    5    1    1
   -0.21686924900E-02    7    5    2    1
    0.69314080490E-02    7    5    2    2
    0.83196872746E-02    7    5    3    3
    0.83196872746E-02    7    5    4    4
    0.15138436977E-02    7    5    5    1
    0.12133194409E-01    7    5    5    2
    0.16215012380E-01    7    5    5    5
    0.26485037615E-03    7    5    6    1
   -0.94215484865E-03    7    5    6    2
    0.35601423246E-02    7    5    6    5
   -0.36032118080E-01    7    5    6    6
    0.31295027157E-02    7    5    7    1
    0.20173358648E-02    7    5    7    2
    0.12047629067E-01    7    5    7    5
    0.41735324022E-02    7    6    1    1
   -0.36901184632E-03    7    6    2    1
    0.91458714190E-03    7    6    2    2
    0.15869063848E-02    7    6    3    3
    0.15869063848E-02    7    6    4    4
    0.15611875539E-03    7    6    5    1
    0.99885138838E-03    7    6    5    2
    0.17217164860E-02    7    6    5    5
   -0.10585776208E-02    7    6    6    1
   -0.71513328264E-02    7    6    6    2
    0.54753226077E-02    7    6    6    5
   -0.13816660653        7    6    6    6
    0.41363792273E-03    7    6    7    1
    0.79717594725E-03    7    6    7    2
    0.51169265382E-03    7    6    7    5
    0.17265361682E-01    7    6    7    6
    0.18878583186        7    7    1    1
    0.91458714190E-03    7    7    2    1
    0.16743661593        7    7    2    2
    0.14955029106        7    7    3    3
    0.14955029106        7    7    4    4
    0.10855735869E-03    7    7    5    1
   -0.22151564675E-01    7    7    5    2
    0.15193566117        7    7    5    5
    0.19681432522E-03    7    7    6    1
    0.65121751160E-02    7    7    6    2
   -0.12653081295E-01    7    7    6    5
    0.34397810102        7    7    6    6
   -0.41124456245E-02    7    7    7    1
   -0.10346561190E-01    7    7    7    2
   -0.25032329445E-01    7    7    7    5
   -0.53019371999E-02    7    7    7    6
    0.25068860113        7    7    7    7
   -0.82333190944E-03    8    1    3    1
   -0.18412795676E-02    8    1    3    2
    0.28466432004E-03    8    1    5    3
    0.14623348073E-03    8    1    6    3
   -0.88597661874E-04    8    1    7    3
    0.32058144665E-03    8    1    8    1
   -0.35618532176E-03    8    2    3    1
   -0.75979938319E-03    8    2    3    2
   -0.18467178293E-02    8    2    5    3
   -0.88597661874E-04    8    2    6    3
    0.74379496651E-04    8    2    7    3
    0.16799583491E-03    8    2    8    1
    0.12651804505E-02    8    2    8    2
   -0.79810529730E-02    8    3    1    1
    0.40240805622E-03    8    3    2    1
   -0.17890067998E-02    8    3    2    2
   -0.10096059220E-02    8    3    3    3
   -0.13256212443E-02    8    3    4    4
   -0.51972466625E-03    8    3    5    1
   -0.37198110259E-02    8    3    5    2
   -0.29729353954E-02    8    3    5    5
   -0.14350926511E-03    8    3    6    1
   -0.77434722556E-03    8    3    6    2
    0.42692007067E-03    8    3    6    5
   -0.79810529730E-02    8    3    6    6
   -0.77434722556E-03    8    3    7    1
   -0.32701342776E-03    8    3    7    2
   -0.17943412170E-02    8    3    7    5
    0.40240805622E-03    8    3    7    6
   -0.17890067998E-02    8    3    7    7
    0.26045402532E-02    8    3    8    3
    0.15800766114E-03    8    4    4    3
    0.49796249053E-03    8    4    8    4
   -0.67569386042E-03    8    5    3    1
   -0.86875942289E-02    8    5    3    2
    0.63085162628E-03    8    5    5    3
    0.66296134760E-03    8    5    6    3
   -0.62910978514E-03    8    5    7    3
    0.72390456503E-03    8    5    8    1
   -0.44464563393E-03    8    5    8    2
    0.42563060127E-02    8    5    8    5
    0.52578962662E-04    8    6    3    1
    0.61941348667E-03    8    6    3    2
   -0.27560857734E-03    8    6    5    3
   -0.82333190944E-03    8    6    6    3
   -0.35618532176E-03    8    6    7    3
   -0.32605732421E-03    8    6    8    1
   -0.21173245038E-03    8    6    8    2
   -0.14673774416E-02    8    6    8    5
    0.42029080786E-02    8    6    8    6
    0.61941348667E-03    8    7    3    1
    0.12480416371E-01    8    7    3    2
   -0.42872299709E-02    8    7    5    3
   -0.18412795676E-02    8    7    6    3
   -0.75979938319E-03    8    7    7    3
   -0.23156361648E-02    8    7    8    1
    0.38589709967E-03    8    7    8    2
   -0.12071158096E-01    8    7    8    5
    0.63322371809E-02    8    7    8    6
    0.50916769052E-01    8    7    8    7
    0.15749127301        8    8    1    1
    0.15869063848E-02    8    8    2    1
    0.14955029106        8    8    2    2
    0.13770968110        8    8    3    3
    0.13284148553        8    8    4    4
   -0.25169554469E-03    8    8    5    1
   -0.20525696004E-01    8    8    5    2
    0.13266789951        8    8    5    5
    0.12946913459E-03    8    8    6    1
    0.53241021228E-02    8    8    6    2
   -0.10674136475E-01    8    8    6    5
    0.29004307384        8    8    6    6
   -0.40070999477E-02    8    8    7    1
   -0.78447694255E-02    8    8    7    2
   -0.23827492755E-01    8    8    7    5
   -0.35754113716E-02    8    8    7    6
    0.22795394153        8    8    7    7
   -0.10096059220E-02    8    8    8    3
    0.22612217356        8    8    8    8
   -0.82333190944E-03    9    1    4    1
   -0.18412795676E-02    9    1    4    2
    0.28466432004E-03    9    1    5    4
    0.14623348073E-03    9    1    6    4
   -0.88597661874E-04    9    1    7    4
    0.32058144665E-03    9    1    9    1
   -0.35618532176E-03    9    2    4    1
   -0.75979938319E-03    9    2    4    2
   -0.18467178293E-02    9    2    5    4
   -0.88597661874E-04    9    2    6    4
    0.74379496651E-04    9    2    7    4
    0.16799583491E-03    9    2    9    1
    0.12651804505E-02    9    2    9    2
    0.15800766114E-03    9    3    4    3
    0.49796249053E-03    9    3    8    4
    0.49796249053E-03    9    3    9    3
   -0.79810529730E-02    9    4    1    1
    0.40240805622E-03    9    4    2    1
   -0.17890067998E-02    9    4    2    2
   -0.13256212443E-02    9    4    3    3
   -0.10096059220E-02    9    4    4    4
   -0.51972466625E-03    9    4    5    1
   -0.37198110259E-02    9    4    5    2
   -0.29729353954E-02    9    4    5    5
   -0.14350926511E-03    9    4    6    1
   -0.77434722556E-03    9    4    6    2
    0.42692007067E-03    9    4    6    5
   -0.79810529730E-02    9    4    6    6
   -0.77434722556E-03    9    4    7    1
   -0.32701342776E-03    9    4    7    2
   -0.17943412170E-02    9    4    7    5
    0.40240805622E-03    9    4    7    6
   -0.17890067998E-02    9    4    7    7
    0.16086152722E-02    9    4    8    3
   -0.13256212443E-02    9    4    8    8
    0.26045402532E-02    9    4    9    4
   -0.67569386042E-03    9    5    4    1
   -0.86875942289E-02    9    5    4    2
    0.63085162628E-03    9    5    5    4
    0.66296134760E-03    9    5    6    4
   -0.62910978514E-03    9    5    7    4
    0.72390456503E-03    9    5    9    1
   -0.44464563393E-03    9    5    9    2
    0.42563060127E-02    9    5    9    5
    0.52578962662E-04    9    6    4    1
    0.61941348667E-03    9    6    4    2
   -0.27560857734E-03    9    6    5    4
   -0.82333190944E-03    9    6    6    4
   -0.35618532176E-03    9    6    7    4
   -0.32605732421E-03    9    6    9    1
   -0.21173245038E-03    9    6    9    2
   -0.14673774416E-02    9    6    9    5
    0.42029080786E-02    9    6    9    6
    0.61941348667E-03    9    7    4    1
    0.12480416371E-01    9    7    4    2
   -0.42872299709E-02    9    7    5    4
   -0.18412795676E-02    9    7    6    4
   -0.75979938319E-03    9    7    7    4
   -0.23156361648E-02    9    7    9    1
    0.38589709967E-03    9    7    9    2
   -0.12071158096E-01    9    7    9    5
    0.63322371809E-02    9    7    9    6
    0.50916769052E-01    9    7    9    7
    0.24340977871E-02    9    8    4    3
    0.15800766114E-03    9    8    8    4
    0.15800766114E-03    9    8    9    3
    0.12372667071E-01    9    8    9    8
    0.15749127301        9    9    1    1
    0.15869063848E-02    9    9    2    1
    0.14955029106        9    9    2    2
    0.13284148553        9    9    3    3
    0.13770968110        9    9    4    4
   -0.25169554469E-03    9    9    5    1
   -0.20525696004E-01    9    9    5    2
    0.13266789951        9    9    5    5
    0.12946913459E-03    9    9    6    1
    0.53241021228E-02    9    9    6    2
   -0.10674136475E-01    9    9    6    5
    0.29004307384        9    9    6    6
   -0.40070999477E-02    9    9    7    1
   -0.78447694255E-02    9    9    7    2
   -0.23827492755E-01    9    9    7    5
   -0.35754113716E-02    9    9    7    6
    0.22795394153        9    9    7    7
   -0.13256212443E-02    9    9    8    3
    0.20137683942        9    9    8    8
   -0.10096059220E-02    9    9    9    4
    0.22612217356        9    9    9    9
    0.69455147750E-01   10    1    1    1
   -0.54753226077E-02   10    1    2    1
    0.12653081295E-01   10    1    2    2
    0.10674136475E-01   10    1    3    3
    0.10674136475E-01   10    1    4    4
    0.15281018528E-02   10    1    5    1
    0.14173834149E-03   10    1    5    2
    0.11468694313E-01   10    1    5    5
    0.32271116318E-03   10    1    6    1
   -0.10712954171E-02   10    1    6    2
    0.14450359076E-02   10    1    6    5
   -0.85194148321E-02   10    1    6    6
    0.36448704566E-02   10    1    7    1
   -0.10642128564E-02   10    1    7    2
    0.34494177544E-02   10    1    7    5
    0.64975599013E-03   10    1    7    6
   -0.25818484021E-02   10    1    7    7
   -0.42692007067E-03   10    1    8    3
   -0.32449377861E-02   10    1    8    8
   -0.42692007067E-03   10    1    9    4
   -0.32449377861E-02   10    1    9    9
    0.42347146970E-02   10    1   10    1
    0.36032118080E-01   10    2    1    1
   -0.51169265382E-03   10    2    2    1
    0.25032329445E-01   10    2    2    2
    0.23827492755E-01   10    2    3    3
    0.23827492755E-01   10    2    4    4
   -0.23063334570E-03   10    2    5    1
   -0.51591025887E-03   10    2    5    2
    0.23554346201E-01   10    2    5    5
   -0.26485037615E-03   10    2    6    1
   -0.31295027157E-02   10    2    6    2
    0.34494177544E-02   10    2    6    5
   -0.25571416458E-01   10    2    6    6
    0.94215484865E-03   10    2    7    1
   -0.20173358648E-02   10    2    7    2
    0.49557634117E-02   10    2    7    5
    0.21686924900E-02   10    2    7    6
   -0.69314080490E-02   10    2    7    7
    0.17943412170E-02   10    2    8    3
   -0.83196872746E-02   10    2    8    8
    0.17943412170E-02   10    2    9    4
   -0.83196872746E-02   10    2    9    9
    0.35601423246E-02   10    2   10    1
    0.12047629067E-01   10    2   10    2
    0.14673774416E-02   10    3    3    1
    0.12071158096E-01   10    3    3    2
   -0.93801661712E-03   10    3    5    3
   -0.72390456503E-03   10    3    6    3
    0.44464563393E-03   10    3    7    3
   -0.66296134760E-03   10    3    8    1
    0.62910978514E-03   10    3    8    2
   -0.37472223974E-02   10    3    8    5
    0.67569386042E-03   10    3    8    6
    0.86875942289E-02   10    3    8    7
    0.42563060127E-02   10    3   10    3
    0.14673774416E-02   10    4    4    1
    0.12071158096E-01   10    4    4    2
   -0.93801661712E-03   10    4    5    4
   -0.72390456503E-03   10    4    6    4
    0.44464563393E-03   10    4    7    4
   -0.66296134760E-03   10    4    9    1
    0.62910978514E-03   10    4    9    2
   -0.37472223974E-02   10    4    9    5
    0.67569386042E-03   10    4    9    6
    0.86875942289E-02   10    4    9    7
    0.42563060127E-02   10    4   10    4
   -0.26848199120E-01   10    5    1    1
   -0.70639097558E-03   10    5    2    1
   -0.19913605550E-01   10    5    2    2
   -0.15192773400E-01   10    5    3    3
   -0.15192773400E-01   10    5    4    4
    0.19822026018E-02   10    5    5    1
    0.12872022466E-01   10    5    5    2
   -0.12649454250E-01   10    5    5    5
    0.47098413747E-03   10    5    6    1
    0.15663120429E-02   10    5    6    2
    0.69561376502E-03   10    5    6    5
   -0.26848199120E-01   10    5    6    6
    0.15663120429E-02   10    5    7    1
    0.41587274600E-02   10    5    7    2
    0.60423078748E-02   10    5    7    5
   -0.70639097559E-03   10    5    7    6
   -0.19913605550E-01   10    5    7    7
   -0.28200553504E-02   10    5    8    3
   -0.15192773400E-01   10    5    8    8
   -0.28200553504E-02   10    5    9    4
   -0.15192773400E-01   10    5    9    9
   -0.69561376502E-03   10    5   10    1
   -0.60423078748E-02   10    5   10    2
    0.12067812377E-01   10    5   10    5
    0.12885230094E-02   10    6    1    1
   -0.15611875539E-03   10    6    2    1
   -0.10855735869E-03   10    6    2    2
    0.25169554469E-03   10    6    3    3
    0.25169554469E-03   10    6    4    4
    0.18322489151E-03   10    6    5    1
    0.49183579199E-03   10    6    5    2
    0.10274932039E-02   10    6    5    5
   -0.63388586124E-03   10    6    6    1
   -0.32575861986E-02   10    6    6    2
    0.15281018528E-02   10    6    6    5
   -0.23510693561E-01   10    6    6    6
   -0.14415017417E-03   10    6    7    1
   -0.38311928397E-03   10    6    7    2
   -0.23063334570E-03   10    6    7    5
    0.40301071636E-02   10    6    7    6
   -0.19240472786E-02   10    6    7    7
    0.51972466625E-03   10    6    8    3
   -0.24144100660E-02   10    6    8    8
    0.51972466625E-03   10    6    9    4
   -0.24144100660E-02   10    6    9    9
    0.13754341276E-03   10    6   10    1
    0.15138436977E-02   10    6   10    2
   -0.19822026018E-02   10    6   10    5
    0.57751228916E-02   10    6   10    6
    0.35609078534E-01   10    7    1    1
   -0.99885138838E-03   10    7    2    1
    0.22151564675E-01   10    7    2    2
    0.20525696004E-01   10    7    3    3
    0.20525696004E-01   10    7    4    4
    0.49183579198E-03   10    7    5    1
   -0.29654105531E-02   10    7    5    2
    0.23840531387E-01   10    7    5    5
   -0.39256197191E-03   10    7    6    1
   -0.18623498631E-02   10    7    6    2
    0.14173834149E-03   10    7    6    5
    0.24847734942E-01   10    7    6    6
   -0.95133002289E-03   10    7    7    1
   -0.54438691459E-02   10    7    7    2
   -0.51591025887E-03   10    7    7    5
    0.82183473553E-03   10    7    7    6
    0.80688684698E-02   10    7    7    7
    0.37198110259E-02   10    7    8    3
    0.75495433303E-03   10    7    8    8
    0.37198110259E-02   10    7    9    4
    0.75495433303E-03   10    7    9    9
    0.22918823421E-02   10    7   10    1
    0.12133194409E-01   10    7   10    2
   -0.12872022466E-01   10    7   10    5
    0.43308083154E-02   10    7   10    6
    0.29337139736E-01   10    7   10    7
    0.27560857734E-03   10    8    3    1
    0.42872299709E-02   10    8    3    2
   -0.24245682958E-02   10    8    5    3
   -0.28466432004E-03   10    8    6    3
    0.18467178293E-02   10    8    7    3
   -0.79370563794E-03   10    8    8    1
   -0.13620273913E-02   10    8    8    2
   -0.93801661712E-03   10    8    8    5
    0.26878675252E-03   10    8    8    6
   -0.19061411205E-02   10    8    8    7
    0.63085162628E-03   10    8   10    3
    0.11681694683E-01   10    8   10    8
    0.27560857734E-03   10    9    4    1
    0.42872299709E-02   10    9    4    2
   -0.24245682958E-02   10    9    5    4
   -0.28466432004E-03   10    9    6    4
    0.18467178293E-02   10    9    7    4
   -0.79370563794E-03   10    9    9    1
   -0.13620273913E-02   10    9    9    2
   -0.93801661712E-03   10    9    9    5
    0.26878675252E-03   10    9    9    6
   -0.19061411205E-02   10    9    9    7
    0.63085162628E-03   10    9   10    4
    0.11681694683E-01   10    9   10    9
    0.16750323527       10   10    1    1
    0.17217164860E-02   10   10    2    1
    0.15193566117       10   10    2    2
    0.13266789951       10   10    3    3
    0.13266789951       10   10    4    4
   -0.10274932039E-02   10   10    5    1
   -0.23840531387E-01   10   10    5    2
    0.13499295253       10   10    5    5
    0.21635429134E-03   10   10    6    1
    0.62023397312E-02   10   10    6    2
   -0.11468694313E-01   10   10    6    5
    0.30377515269       10   10    6    6
   -0.24134011285E-02   10   10    7    1
   -0.40602638310E-02   10   10    7    2
   -0.23554346201E-01   10   10    7    5
   -0.51275560816E-02   10   10    7    6
    0.22083460664       10   10    7    7
   -0.29729353954E-02   10   10    8    3
    0.20326768821       10   10    8    8
   -0.29729353954E-02   10   10    9    4
    0.20326768821       10   10    9    9
   -0.42153705731E-02   10   10   10    1
   -0.16215012380E-01   10   10   10    2
   -0.12649454250E-01   10   10   10    5
   -0.28444005389E-02   10   10   10    6
   -0.10673539613E-01   10   10   10    7
    0.23222955692       10   10   10   10
    -5.0104776095        1    1    0    0
    0.16825602123        2    1    0    0
    -1.3444694987        2    2    0    0
    -1.1641813794        3    3    0    0
    -1.1641813794        4    4    0    0
   -0.55111212653E-01    5    1    0    0
    0.10744608355        5    2    0    0
    -1.2064263890        5    5    0    0
   -0.21959082572E-01    6    1    0    0
   -0.17000642444        6    2    0    0
    0.24383954093        6    5    0    0
    -5.0104776095        6    6    0    0
   -0.17000642444        7    1    0    0
    0.83304412852E-02    7    2    0    0
    0.11133814911        7    5    0    0
    0.16825602123        7    6    0    0
    -1.3444694987        7    7    0    0
   -0.50817865497E-02    8    3    0    0
    -1.1641813794        8    8    0    0
   -0.50817865497E-02    9    4    0    0
    -1.1641813794        9    9    0    0
   -0.24383954093       10    1    0    0
   -0.11133814911       10    2    0    0
    0.16764058901       10    5    0    0
    0.55111212653E-01   10    6    0    0
   -0.10744608355       10    7    0    0
    -1.2064263890       10   10    0    0
    -2.4825000000        1    0    0    0
    -2.4750000000        2    0    0    0
   -0.30682000000        3    0    0    0
   -0.84108000000E-01    4    0    0    0
     3.1292000000        5    0    0    0
     3.1292000000        6    0    0    0
     3.2137000000        7    0    0    0
     3.2397000000        8    0    0    0
     3.2397000000        9    0    0    0
     3.4306000000       10    0    0    0
     1.7817547824        0    0    0    0
