 &FCI NORB= 13,NELEC=  5,MS2= 3,
  ORBSYM=1,2,3,5,1,1,1,2,3,4,5,6,7,
  ISYM=8,
 /
  0.6843858142680903E+00   1   1   1   1
  0.6694602962033457E+00   2   2   1   1
  0.7056504665847284E+00   2   2   2   2
  0.6694602962033458E+00   3   3   1   1
  0.6343830727031732E+00   3   3   2   2
  0.7056504665847289E+00   3   3   3   3
  0.6694602962033089E+00   4   4   1   1
  0.6343830727031857E+00   4   4   2   2
  0.6343830727031858E+00   4   4   3   3
  0.7056504665847568E+00   4   4   4   4
 -0.1512294930189898E+00   5   1   1   1
 -0.1473931641292370E+00   5   1   2   2
 -0.1473931641292371E+00   5   1   3   3
 -0.1473931641328096E+00   5   1   4   4
  0.9233953902632239E-01   5   1   5   1
  0.5554906533784926E+00   5   5   1   1
  0.5481006455811673E+00   5   5   2   2
  0.5481006455811674E+00   5   5   3   3
  0.5481006455822345E+00   5   5   4   4
 -0.9708167317363148E-01   5   5   5   1
  0.4806166192421905E+00   5   5   5   5
 -0.1797252646819394E-14   6   1   1   1
  0.4637522189487769E-01   6   1   2   2
 -0.4638960574226848E-01   6   1   3   3
  0.1438384738576507E-04   6   1   4   4
  0.3153440695332592E-15   6   1   5   1
 -0.9813449887807979E-15   6   1   5   5
  0.6521279460214519E-01   6   1   6   1
 -0.1163518549691471E-14   6   5   1   1
 -0.6877695259480655E-02   6   5   2   2
  0.6879828461547684E-02   6   5   3   3
 -0.2133202064618564E-05   6   5   4   4
  0.3355625916699468E-15   6   5   5   1
 -0.9122207452806652E-15   6   5   5   5
 -0.6915685467787933E-02   6   5   6   1
  0.1360696034899529E-01   6   5   6   5
  0.6523002464917137E+00   6   6   1   1
  0.6541079394613745E+00   6   6   2   2
  0.6541413924978281E+00   6   6   3   3
  0.6001880373637805E+00   6   6   4   4
 -0.1176125889227870E+00   6   6   5   1
  0.5293639504994466E+00   6   6   5   5
 -0.3626182753161555E-04   6   6   6   1
  0.2287358061120316E-05   6   6   6   5
  0.6951240147580665E+00   6   6   6   6
 -0.6731279591687555E-11   7   1   1   1
 -0.2679135588718440E-01   7   1   2   2
 -0.2676644233270092E-01   7   1   3   3
  0.5355779820108873E-01   7   1   4   4
  0.1181260352508676E-11   7   1   5   1
 -0.3675740817051697E-11   7   1   5   5
 -0.1504446893404938E-16   7   1   6   1
 -0.1076674190215329E-14   7   1   6   5
 -0.4500657846380505E-01   7   1   6   6
  0.6521279460208899E-01   7   1   7   1
 -0.4357398096674512E-11   7   5   1   1
  0.3973302427622402E-02   7   5   2   2
  0.3969607613267531E-02   7   5   3   3
 -0.7942910032007731E-02   7   5   4   4
  0.1256521236957664E-11   7   5   5   1
 -0.3416317654497166E-11   7   5   5   5
 -0.1076666871506114E-14   7   5   6   1
  0.1360287074830213E-15   7   5   6   5
  0.2838967812775308E-02   7   5   6   6
 -0.6915685471785117E-02   7   5   7   1
  0.1360696034950030E-01   7   5   7   5
 -0.1500925670707805E-16   7   6   1   1
 -0.3114998409325549E-01   7   6   2   2
  0.3113066997364338E-01   7   6   3   3
  0.1931411961211726E-04   7   6   4   4
 -0.1076658215756874E-14   7   6   5   1
  0.1367855454636739E-15   7   6   5   5
 -0.4500657845889786E-01   7   6   6   1
  0.2838967765205332E-02   7   6   6   5
 -0.4924816876805528E-14   7   6   6   6
  0.3626182752998095E-04   7   6   7   1
 -0.2287358076564458E-05   7   6   7   5
  0.4067537902022927E-01   7   6   7   6
  0.6523002464916575E+00   7   7   1   1
  0.6181836400876153E+00   7   7   2   2
  0.6181501870511618E+00   7   7   3   3
  0.6721035421842070E+00   7   7   4   4
 -0.1176125889267839E+00   7   7   5   1
  0.5293639504999526E+00   7   7   5   5
  0.3626182752867080E-04   7   7   6   1
 -0.2287358063784764E-05   7   7   6   5
  0.6137732566992729E+00   7   7   6   6
  0.4500657845277516E-01   7   7   7   1
 -0.2838967822754161E-02   7   7   7   5
  0.4801236854921551E-14   7   7   7   6
  0.6951240147576075E+00   7   7   7   7
 -0.1719947117784048E+00   8   2   1   1
 -0.1840688035701653E+00   8   2   2   2
 -0.1632454315919350E+00   8   2   3   3
 -0.1632454315919429E+00   8   2   4   4
  0.1004824431907400E+00   8   2   5   1
 -0.1127354873944127E+00   8   2   5   5
 -0.1033003182343081E-01   8   2   6   1
  0.1266751827748092E-01   8   2   6   5
 -0.1388485945712079E+00   8   2   6   6
  0.5967746313376795E-02   8   2   7   1
 -0.7318131928331262E-02   8   2   7   5
  0.5264241814713860E-02   8   2   7   6
 -0.1327775096197271E+00   8   2   7   7
  0.1320510414894941E+00   8   2   8   2
  0.5451287725405243E+00   8   8   1   1
  0.5731863509292917E+00   8   8   2   2
  0.5254253904300850E+00   8   8   3   3
  0.5254253904300941E+00   8   8   4   4
 -0.1031557789510487E+00   8   8   5   1
  0.4739425319725796E+00   8   8   5   5
  0.2708506110064786E-01   8   8   6   1
 -0.1509810291666159E-02   8   8   6   5
  0.5227983297062011E+00   8   8   6   6
 -0.1564726770409162E-01   8   8   7   1
  0.8722302448300253E-03   8   8   7   5
 -0.1755076941559738E-01   8   8   7   6
  0.5025575779358441E+00   8   8   7   7
 -0.1265968716466826E+00   8   8   8   2
  0.5047151312412349E+00   8   8   8   8
 -0.1719947117784048E+00   9   3   1   1
 -0.1632454315919351E+00   9   3   2   2
 -0.1840688035701656E+00   9   3   3   3
 -0.1632454315919430E+00   9   3   4   4
  0.1004824431907400E+00   9   3   5   1
 -0.1127354873944144E+00   9   3   5   5
  0.1033323581029134E-01   9   3   6   1
 -0.1267144726462464E-01   9   3   6   5
 -0.1388542480210719E+00   9   3   6   6
  0.5962196845360601E-02   9   3   7   1
 -0.7311326723010771E-02   9   3   7   5
 -0.5260977793898625E-02   9   3   7   6
 -0.1327718561698634E+00   9   3   7   7
  0.1030882047852128E+00   9   3   8   2
 -0.1187917541242001E+00   9   3   8   8
  0.1320510414894944E+00   9   3   9   3
  0.5451287725405242E+00   9   9   1   1
  0.5254253904300848E+00   9   9   2   2
  0.5731863509292918E+00   9   9   3   3
  0.5254253904300940E+00   9   9   4   4
 -0.1031557789510490E+00   9   9   5   1
  0.4739425319725815E+00   9   9   5   5
 -0.2709346186661455E-01   9   9   6   1
  0.1510278578033833E-02   9   9   6   5
  0.5228171780795193E+00   9   9   6   6
 -0.1563271715063120E-01   9   9   7   1
  0.8714191491753911E-03   9   9   7   5
  0.1753988730216584E-01   9   9   7   6
  0.5025387295625253E+00   9   9   7   7
 -0.1187917541242001E+00   9   9   8   2
  0.4581335681489008E+00   9   9   8   8
 -0.1265968716466824E+00   9   9   9   3
  0.5047151312412342E+00   9   9   9   9
  0.6523002464917126E+00  10  10   1   1
  0.6541246685731661E+00  10  10   2   2
  0.6541246685731663E+00  10  10   3   3
  0.6001880321766482E+00  10  10   4   4
 -0.1176125889227860E+00  10  10   5   1
  0.5293639504994477E+00  10  10   5   5
 -0.1208727700718886E-04  10  10   6   1
  0.7624527688883390E-06  10  10   6   5
  0.6526273472978941E+00  10  10   6   6
 -0.4500659144877010E-01  10  10   7   1
  0.2838968631853322E-02  10  10   7   5
 -0.1043491943758634E-04  10  10   7   6
  0.6137732595017455E+00  10  10   7   7
 -0.1388514217344432E+00  10  10   8   2
  0.5228077553541470E+00  10  10   8   8
 -0.1388514217344434E+00  10  10   9   3
  0.5228077553541469E+00  10  10   9   9
  0.6951240147580644E+00  10  10  10  10
 -0.1719947117783890E+00  11   4   1   1
 -0.1632454315919309E+00  11   4   2   2
 -0.1632454315919309E+00  11   4   3   3
 -0.1840688035701706E+00  11   4   4   4
  0.1004824431915265E+00  11   4   5   1
 -0.1127354873963617E+00  11   4   5   5
 -0.3203986851819780E-05  11   4   6   1
  0.3928987120851038E-05  11   4   6   5
 -0.1297363136931448E+00  11   4   6   6
 -0.1192994312622318E-01  11   4   7   1
  0.1462945856625810E-01  11   4   7   5
 -0.3264020815210921E-05  11   4   7   6
 -0.1418897904958327E+00  11   4   7   7
  0.1030882047852111E+00  11   4   8   2
 -0.1187917541241972E+00  11   4   8   8
  0.1030882047852111E+00  11   4   9   3
 -0.1187917541241971E+00  11   4   9   9
 -0.1297363128165368E+00  11   4  10  10
  0.1320510414894901E+00  11   4  11   4
  0.5451287725404819E+00  11  11   1   1
  0.5254253904300725E+00  11  11   2   2
  0.5254253904300725E+00  11  11   3   3
  0.5731863509292877E+00  11  11   4   4
 -0.1031557789531248E+00  11  11   5   1
  0.4739425319728054E+00  11  11   5   5
  0.8400765964139120E-05  11  11   6   1
 -0.4682863200063581E-06  11  11   6   5
  0.4924183536772305E+00  11  11   6   6
  0.3127998484516335E-01  11  11   7   1
 -0.1743649216699640E-02  11  11   7   5
  0.1088211343146844E-04  11  11   7   6
  0.5329375539645803E+00  11  11   7   7
 -0.1187917541241924E+00  11  11   8   2
  0.4581335681488916E+00  11  11   8   8
 -0.1187917541241924E+00  11  11   9   3
  0.4581335681488917E+00  11  11   9   9
  0.4924183507546545E+00  11  11  10  10
 -0.1265968716466706E+00  11  11  11   4
  0.5047151312412168E+00  11  11  11  11
  0.6523002464916705E+00  12  12   1   1
  0.6541246685731661E+00  12  12   2   2
  0.6001880321766383E+00  12  12   3   3
  0.6541246685731767E+00  12  12   4   4
 -0.1176125889257835E+00  12  12   5   1
  0.5293639504998261E+00  12  12   5   5
  0.3898289515005261E-01  12  12   6   1
 -0.2459000122741751E-02  12  12   6   5
  0.6234777445452931E+00  12  12   6   6
  0.2249282781448594E-01  12  12   7   1
 -0.1418824039036451E-02  12  12   7   5
 -0.1681909607336757E-01  12  12   7   6
  0.6429228622540027E+00  12  12   7   7
 -0.1388514217344432E+00  12  12   8   2
  0.5228077553541470E+00  12  12   8   8
 -0.1297363128165410E+00  12  12   9   3
  0.4924183507546645E+00  12  12   9   9
  0.6234867800493735E+00  12  12  10  10
 -0.1388514217344382E+00  12  12  11   4
  0.5228077553541359E+00  12  12  11  11
  0.6951240147580645E+00  12  12  12  12
  0.6523002464916705E+00  13  13   1   1
  0.6001880321766381E+00  13  13   2   2
  0.6541246685731663E+00  13  13   3   3
  0.6541246685731767E+00  13  13   4   4
 -0.1176125889257835E+00  13  13   5   1
  0.5293639504998261E+00  13  13   5   5
 -0.3897080787305666E-01  13  13   6   1
  0.2458237669958617E-02  13  13   6   5
  0.6234958183559287E+00  13  13   6   6
  0.2251376359237638E-01  13  13   7   1
 -0.1420144645938624E-02  13  13   7   5
  0.1682953099280515E-01  13  13   7   6
  0.6429047884433673E+00  13  13   7   7
 -0.1297363128165409E+00  13  13   8   2
  0.4924183507546646E+00  13  13   8   8
 -0.1388514217344434E+00  13  13   9   3
  0.5228077553541469E+00  13  13   9   9
  0.6234867800493735E+00  13  13  10  10
 -0.1388514217344382E+00  13  13  11   4
  0.5228077553541359E+00  13  13  11  11
  0.6234867800493735E+00  13  13  12  12
  0.6951240147580645E+00  13  13  13  13
  0.1377302032345536E+00   2   1   2   1
 -0.2753283876504910E-01   5   2   2   1
  0.4002932456796353E-01   5   2   5   2
  0.1014908648522906E+00   6   2   2   1
 -0.1551756965900455E-01   6   2   5   2
  0.9931666346001713E-01   6   2   6   2
 -0.5863212655141735E-01   7   2   2   1
  0.8964630551201121E-02   7   2   5   2
 -0.4913489188276135E-01   7   2   6   2
  0.4265093420539978E-01   7   2   7   2
 -0.3682853794274814E-01   8   1   2   1
  0.3666587745614625E-01   8   1   5   2
 -0.2305886947470466E-01   8   1   6   2
  0.1332130290642655E-01   8   1   7   2
  0.3475984668764009E-01   8   1   8   1
  0.9582541640403888E-01   8   5   2   1
 -0.6815041947786948E-02   8   5   5   2
  0.6873877225191645E-01   8   5   6   2
 -0.3971096706110871E-01   8   5   7   2
 -0.1516748025152492E-01   8   5   8   1
  0.8364010655134578E-01   8   5   8   5
 -0.2001657372739206E-01   8   6   2   1
  0.1979946799497328E-01   8   6   5   2
 -0.1640201559356208E-01   8   6   6   2
  0.8121081139807617E-02   8   6   7   2
  0.1867430763988425E-01   8   6   8   1
 -0.8248768720433786E-02   8   6   8   5
  0.1516467878811408E-01   8   6   8   6
  0.1156374306601111E-01   8   7   2   1
 -0.1143831927639890E-01   8   7   5   2
  0.8121081141992746E-02   8   7   6   2
 -0.7036227499291779E-02   8   7   7   2
 -0.1078830464635365E-01   8   7   8   1
  0.4765383078635726E-02   8   7   8   5
 -0.7046605112642003E-02   8   7   8   6
  0.7038050168024002E-02   8   7   8   7
  0.1015066078351484E+00  10   3   2   1
 -0.1551997670158328E-01  10   3   5   2
  0.5653397614354808E-01  10   3   6   2
 -0.4913485118278451E-01  10   3   7   2
 -0.2306244630501391E-01  10   3   8   1
  0.6874943485005933E-01  10   3   8   5
 -0.9370364497020122E-02  10   3   8   6
  0.8121081492515723E-02  10   3   8   7
  0.9934305137394864E-01  10   3  10   3
 -0.2001967864095262E-01  10   9   2   1
  0.1980253921534882E-01  10   9   5   2
 -0.9370364497020679E-02  10   9   6   2
  0.8121081490330598E-02  10   9   7   2
  0.1867720434694739E-01  10   9   8   1
 -0.8250048262259254E-02  10   9   8   5
  0.6265069655460623E-02  10   9   8   6
 -0.7046104397367271E-02  10   9   8   7
 -0.1640637702353497E-01  10   9  10   3
  0.1516846317029317E-01  10   9  10   9
  0.1015066078351415E+00  12   4   2   1
 -0.1551997670268168E-01  12   4   5   2
  0.7080590519483024E-01  12   4   6   2
 -0.2443046968154548E-01  12   4   7   2
 -0.2306244630501335E-01  12   4   8   1
  0.6874943485024000E-01  12   4   8   5
 -0.1171606566198810E-01  12   4   8   6
  0.4060726666542988E-02  12   4   8   7
  0.7081246385452374E-01  12   4  10   3
 -0.1171715581585509E-01  12   4  10   9
  0.9934305137394989E-01  12   4  12   4
 -0.2001967864094744E-01  12  11   2   1
  0.1980253921552853E-01  12  11   5   2
 -0.1171606566198557E-01  12  11   6   2
  0.4060726664356859E-02  12  11   7   2
  0.1867720434694488E-01  12  11   8   1
 -0.8250048262484721E-02  12  11   8   5
  0.9233616919922718E-02  12  11   8   6
 -0.1907617328110530E-02  12  11   8   7
 -0.1171715581585204E-01  12  11  10   3
  0.9234128909616208E-02  12  11  10   9
 -0.1640637702353175E-01  12  11  12   4
  0.1516846317029193E-01  12  11  12  11
  0.1377302032345536E+00   3   1   3   1
 -0.2753283876504914E-01   5   3   3   1
  0.4002932456796354E-01   5   3   5   3
 -0.1015223434965244E+00   6   3   3   1
  0.1552238262473522E-01   6   3   5   3
  0.9936943110588101E-01   6   3   6   3
 -0.5857760394025216E-01   7   3   3   1
  0.8956294250017999E-02   7   3   5   3
  0.4910442646821434E-01   7   3   6   3
  0.4259816655953591E-01   7   3   7   3
 -0.3682853794274810E-01   9   1   3   1
  0.3666587745614616E-01   9   1   5   3
  0.2306602146764069E-01   9   1   6   3
  0.1330891529128395E-01   9   1   7   3
  0.3475984668764006E-01   9   1   9   1
  0.9582541640403890E-01   9   5   3   1
 -0.6815041947786975E-02   9   5   5   3
 -0.6876009243042303E-01   9   5   6   3
 -0.3967403942868664E-01   9   5   7   3
 -0.1516748025152489E-01   9   5   9   1
  0.8364010655134577E-01   9   5   9   5
  0.2002278211476245E-01   9   6   3   1
 -0.1980560904433137E-01   9   6   5   3
 -0.1641073710117613E-01   9   6   6   3
 -0.8116045775035916E-02   9   6   7   3
 -0.1868009970685871E-01   9   6   9   1
  0.8251327177842030E-02   9   6   9   5
  0.1517224637906368E-01   9   6   9   6
  0.1155298982365982E-01   9   7   3   1
 -0.1142768266692340E-01   9   7   5   3
 -0.8116045777221036E-02   9   7   6   3
 -0.7027505991677650E-02   9   7   7   3
 -0.1077827249207346E-01   9   7   9   1
  0.4760951700401020E-02   9   7   9   5
  0.7042235961957162E-02   9   7   9   6
  0.7030482577074313E-02   9   7   9   7
  0.1015066078351484E+00  10   2   3   1
 -0.1551997670796514E-01  10   2   5   3
 -0.5656035996743112E-01  10   2   6   3
 -0.4910447779534638E-01  10   2   7   3
 -0.2306244630501388E-01  10   2   9   1
  0.6874943485354937E-01  10   2   9   5
  0.9374725250986600E-02  10   2   9   6
  0.8116047189372328E-02  10   2   9   7
  0.9934305137394861E-01  10   2  10   2
 -0.2001967864095265E-01  10   8   3   1
  0.1980253922435984E-01  10   8   5   3
  0.9374725250986034E-02  10   8   6   3
  0.8116047187187213E-02  10   8   7   3
  0.1867720434694740E-01  10   8   9   1
 -0.8250048267187131E-02  10   8   9   5
 -0.6268853451075516E-02  10   8   9   6
 -0.7042738214950071E-02  10   8   9   7
 -0.1640637702353499E-01  10   8  10   2
  0.1516846317029319E-01  10   8  10   8
  0.1015066078351415E+00  13   4   3   1
 -0.1551997670268170E-01  13   4   5   3
 -0.7081901740664666E-01  13   4   6   3
 -0.2439243392688151E-01  13   4   7   3
 -0.2306244630501332E-01  13   4   9   1
  0.6874943485024000E-01  13   4   9   5
  0.1171824512458560E-01  13   4   9   6
  0.4054432988287592E-02  13   4   9   7
  0.7081246385452374E-01  13   4  10   2
 -0.1171715581585512E-01  13   4  10   8
  0.9934305137394989E-01  13   4  13   4
 -0.2001967864094744E-01  13  11   3   1
  0.1980253921552853E-01  13  11   5   3
  0.1171824512458194E-01  13  11   6   3
  0.4054432986101478E-02  13  11   7   3
  0.1867720434694487E-01  13  11   9   1
 -0.8250048262484717E-02  13  11   9   5
 -0.9234640233269307E-02  13  11   9   6
 -0.1902657367072270E-02  13  11   9   7
 -0.1171715581585203E-01  13  11  10   2
  0.9234128909616212E-02  13  11  10   8
 -0.1640637702353175E-01  13  11  13   4
  0.1516846317029193E-01  13  11  13  11
  0.3563369692653692E-01   3   2   3   2
 -0.1041168596900751E-01   8   3   3   2
  0.1448141827148149E-01   8   3   8   3
 -0.1041168596900750E-01   9   2   3   2
  0.1448141830919634E-01   9   2   8   3
  0.1448141827148148E-01   9   2   9   2
  0.2388048021343378E-01   9   8   3   2
 -0.3902558650842931E-02   9   8   8   3
 -0.3902558650842935E-02   9   8   9   2
  0.2329078135614836E-01   9   8   9   8
  0.4638241549131152E-01  10   1   3   2
 -0.1033163418946172E-01  10   1   8   3
 -0.1033163418946172E-01  10   1   9   2
  0.2708926249227099E-01  10   1   9   8
  0.6521279460214503E-01  10   1  10   1
 -0.6878762115532319E-02  10   5   3   2
  0.1266948322672551E-01  10   5   8   3
  0.1266948322120452E-01  10   5   9   2
 -0.1510044485542874E-02  10   5   9   8
 -0.6915685467787756E-02  10   5  10   1
  0.1360696034899325E-01  10   5  10   5
 -0.8363259420105907E-05  10   6   3   2
  0.1413362521903180E-05  10   6   8   3
  0.1413362521903177E-05  10   6   9   2
 -0.4712093505625269E-05  10   6   9   8
 -0.1208727700587869E-04  10   6  10   1
  0.7624527561044889E-06  10   6  10   5
  0.2124833372123654E-01  10   6  10   6
 -0.3114033042154052E-01  10   7   3   2
  0.5262610392271510E-02  10   7   8   3
  0.5262610392271504E-02  10   7   9   2
 -0.1754533027991406E-01  10   7   9   8
 -0.4500659144386288E-01  10   7  10   1
  0.2838968584283035E-02  10   7  10   5
  0.5217459718707440E-05  10   7  10   6
  0.4067537761899265E-01  10   7  10   7
  0.2696831819826409E-01  13  12   3   2
 -0.4557554466067862E-02  13  12   8   3
 -0.4557554466067852E-02  13  12   9   2
  0.1519470227420781E-01  13  12   9   8
  0.3897685293353850E-01  13  12  10   1
 -0.2458618997117633E-02  13  12  10   5
 -0.4518452821822861E-05  13  12  10   6
 -0.1682431535334601E-01  13  12  10   7
  0.3581861733999994E-01  13  12  13  12
  0.1377302032344468E+00   4   1   4   1
 -0.2753283877285560E-01   5   4   4   1
  0.4002932457035181E-01   5   4   5   4
  0.3147864423280661E-04   6   4   4   1
 -0.4812965737653478E-05   6   4   5   4
  0.1426530193296302E-01   6   4   6   4
  0.1172097304879709E+00   7   4   4   1
 -0.1792092482719134E-01   7   4   5   4
  0.3046541454552949E-04   7   4   6   4
  0.1277022957284633E+00   7   4   7   4
 -0.3682853794272089E-01  11   1   4   1
  0.3666587745790934E-01  11   1   5   4
 -0.7151992937066623E-05  11   1   6   4
 -0.2663021820144186E-01  11   1   7   4
  0.3475984668761704E-01  11   1  11   1
  0.9582541640554137E-01  11   5   4   1
 -0.6815041954600627E-02  11   5   5   4
  0.2132017852574291E-04  11   5   6   4
  0.7938500656116296E-01  11   5   7   4
 -0.1516748025295213E-01  11   5  11   1
  0.8364010655261353E-01  11   5  11   5
 -0.6208387364711221E-05  11   6   4   1
  0.6141049347180449E-05  11   6   5   4
 -0.2344611957089752E-02  11   6   6   4
 -0.5035364766063631E-05  11   6   7   4
  0.5792066974037440E-05  11   6  11   1
 -0.2558457420746444E-05  11   6  11   5
  0.2967168265247907E-02  11   6  11   6
 -0.2311673286817098E-01  11   7   4   1
  0.2286600190189245E-01  11   7   5   4
 -0.5035364766059660E-05  11   7   6   4
 -0.2109363113986825E-01  11   7   7   4
  0.2156657713636836E-01  11   7  11   1
 -0.9526334823450290E-02  11   7  11   5
  0.4369150681803055E-05  11   7  11   6
  0.1923556067601097E-01  11   7  11   7
  0.1015066078351110E+00  12   2   4   1
 -0.1551997671341598E-01  12   2   5   4
  0.1428504125639239E-01  12   2   6   4
  0.7352728510763334E-01  12   2   7   4
 -0.2306244630500367E-01  12   2  11   1
  0.6874943485445024E-01  12   2  11   5
 -0.2347880631357632E-02  12   2  11   6
 -0.1217551443879167E-01  12   2  11   7
  0.9934305137394861E-01  12   2  12   2
 -0.2001967864094703E-01  12   8   4   1
  0.1980253922526166E-01  12   8   5   4
 -0.2347880631358884E-02  12   8   6   4
 -0.1217551444097998E-01  12   8   7   4
  0.1867720434694165E-01  12   8  11   1
 -0.8250048267896831E-02  12   8  11   5
  0.2969570588267043E-02  12   8  11   6
  0.8948761676231648E-02  12   8  11   7
 -0.1640637702353499E-01  12   8  12   2
  0.1516846317029319E-01  12   8  12   8
  0.1015066078351110E+00  13   3   4   1
 -0.1551997671341593E-01  13   3   5   4
 -0.1424554522069363E-01  13   3   6   4
  0.7353494747642923E-01  13   3   7   4
 -0.2306244630500367E-01  13   3  11   1
  0.6874943485445018E-01  13   3  11   5
  0.2341340414817730E-02  13   3  11   6
 -0.1217677380796206E-01  13   3  11   7
  0.7081246385452329E-01  13   3  12   2
 -0.1171715581585476E-01  13   3  12   8
  0.9934305137394864E-01  13   3  13   3
 -0.2001967864094700E-01  13   9   4   1
  0.1980253922526165E-01  13   9   5   4
  0.2341340414817805E-02  13   9   6   4
 -0.1217677381015032E-01  13   9   7   4
  0.1867720434694163E-01  13   9  11   1
 -0.8250048267896805E-02  13   9  11   5
 -0.2964763479356518E-02  13   9  11   6
  0.8950355441442919E-02  13   9  11   7
 -0.1171715581585475E-01  13   9  12   2
  0.9234128909616668E-02  13   9  12   8
 -0.1640637702353497E-01  13   9  13   3
  0.1516846317029317E-01  13   9  13   9
  0.3563369692653771E-01   4   2   4   2
 -0.1041168596900898E-01   8   4   4   2
  0.1448141827148179E-01   8   4   8   4
 -0.1041168596900668E-01  11   2   4   2
  0.1448141830919610E-01  11   2   8   4
  0.1448141827148069E-01  11   2  11   2
  0.2388048021343353E-01  11   8   4   2
 -0.3902558650843267E-02  11   8   8   4
 -0.3902558650841462E-02  11   8  11   2
  0.2329078135614807E-01  11   8  11   8
  0.4638241549129733E-01  12   1   4   2
 -0.1033163418946031E-01  12   1   8   4
 -0.1033163418945748E-01  12   1  11   2
  0.2708926249226240E-01  12   1  11   8
  0.6521279460210290E-01  12   1  12   1
 -0.6878762117607729E-02  12   5   4   2
  0.1266948322707625E-01  12   5   8   4
  0.1266948322155493E-01  12   5  11   2
 -0.1510044486711505E-02  12   5  11   8
 -0.6915685470785251E-02  12   5  12   1
  0.1360696034937162E-01  12   5  12   5
  0.2697249885334047E-01  12   6   4   2
 -0.4558260980080587E-02  12   6   8   4
 -0.4558260980078954E-02  12   6  11   2
  0.1519705778387920E-01  12   6  11   8
  0.3898289516636968E-01  12   6  12   1
 -0.2459000135963284E-02  12   6  12   5
  0.3582313509204051E-01  12   6  12   6
  0.1556292240573698E-01  12   7   4   2
 -0.2630081192859542E-02  12   7   8   4
 -0.2630081192858605E-02  12   7  11   2
  0.8768584377354251E-02  12   7  11   8
  0.2249282783253060E-01  12   7  12   1
 -0.1418824042202268E-02  12   7  12   5
  0.8409548036537613E-02  12   7  12   6
  0.2610057624784484E-01  12   7  12   7
  0.2696831819622026E-01  13  10   4   2
 -0.4557554463182344E-02  13  10   8   4
 -0.4557554463180716E-02  13  10  11   2
  0.1519470228510104E-01  13  10  11   8
  0.3897685293353063E-01  13  10  12   1
 -0.2458619001429545E-02  13  10  12   5
  0.1457254372094714E-01  13  10  12   6
  0.8408244581595340E-02  13  10  12   7
  0.3581861733999994E-01  13  10  13  10
  0.3563369692653772E-01   4   3   4   3
 -0.1041168596900897E-01   9   4   4   3
  0.1448141827148178E-01   9   4   9   4
 -0.1041168596900669E-01  11   3   4   3
  0.1448141830919610E-01  11   3   9   4
  0.1448141827148070E-01  11   3  11   3
  0.2388048021343353E-01  11   9   4   3
 -0.3902558650843260E-02  11   9   9   4
 -0.3902558650841455E-02  11   9  11   3
  0.2329078135614806E-01  11   9  11   9
  0.2696831819622026E-01  12  10   4   3
 -0.4557554463182344E-02  12  10   9   4
 -0.4557554463180729E-02  12  10  11   3
  0.1519470228510105E-01  12  10  11   9
  0.3581861733999994E-01  12  10  12  10
  0.4638241549129733E-01  13   1   4   3
 -0.1033163418946030E-01  13   1   9   4
 -0.1033163418945748E-01  13   1  11   3
  0.2708926249226240E-01  13   1  11   9
  0.3897685293353063E-01  13   1  12  10
  0.6521279460210290E-01  13   1  13   1
 -0.6878762117607733E-02  13   5   4   3
  0.1266948322707625E-01  13   5   9   4
  0.1266948322155493E-01  13   5  11   3
 -0.1510044486711498E-02  13   5  11   9
 -0.2458619001429528E-02  13   5  12  10
 -0.6915685470785251E-02  13   5  13   1
  0.1360696034937162E-01  13   5  13   5
 -0.2696413559392568E-01  13   6   4   3
  0.4556847617556211E-02  13   6   9   4
  0.4556847617554592E-02  13   6  11   3
 -0.1519234569035741E-01  13   6  11   9
 -0.1456802526812539E-01  13   6  12  10
 -0.3897080788936405E-01  13   6  13   1
  0.2458237683178459E-02  13   6  13   5
  0.3581409818672292E-01  13   6  13   6
  0.1557740799596752E-01  13   7   4   3
 -0.2632529208561764E-02  13   7   9   4
 -0.2632529208560833E-02  13   7  11   3
  0.8776745962714353E-02  13   7  11   9
  0.8416070771452868E-02  13   7  12  10
  0.2251376361042979E-01  13   7  13   1
 -0.1420144649111540E-02  13   7  13   5
 -0.8414765496250948E-02  13   7  13   6
  0.2610961315316242E-01  13   7  13   7
  0.1426529375096358E-01  10   4  10   4
 -0.2344610604757859E-02  11  10  10   4
  0.2967167091839008E-02  11  10  11  10
  0.1426529375300749E-01  12   3  10   4
 -0.2344610607643879E-02  12   3  11  10
  0.1426529375096340E-01  12   3  12   3
 -0.2344610607644536E-02  12   9  10   4
  0.2967167140819893E-02  12   9  11  10
 -0.2344610604758293E-02  12   9  12   3
  0.2967167091839185E-02  12   9  12   9
  0.1426529375300749E-01  13   2  10   4
 -0.2344610607643873E-02  13   2  11  10
  0.1426529375096340E-01  13   2  12   3
 -0.2344610604758306E-02  13   2  12   9
  0.1426529375096340E-01  13   2  13   2
 -0.2344610607644539E-02  13   8  10   4
  0.2967167140819895E-02  13   8  11  10
 -0.2344610604758303E-02  13   8  12   3
  0.2967167121776285E-02  13   8  12   9
 -0.2344610604758296E-02  13   8  13   2
  0.2967167091839187E-02  13   8  13   8
 -0.3428443128847722E+01   1   1   0   0
 -0.2961059360957570E+01   2   2   0   0
 -0.2961059360957571E+01   3   3   0   0
 -0.2961059360957659E+01   4   4   0   0
  0.5521097272376245E+00   5   1   0   0
 -0.1555289074758304E+01   5   5   0   0
  0.6319786457475704E-14   6   1   0   0
 -0.6663059011923865E-14   6   5   0   0
 -0.9881902199919226E+00   6   6   0   0
  0.2367932087933932E-10   7   1   0   0
 -0.2495842139025811E-10   7   5   0   0
  0.2938593653825616E-17   7   6   0   0
 -0.9881902199919114E+00   7   7   0   0
  0.6128283771829535E+00   8   2   0   0
 -0.1638089491578252E+01   8   8   0   0
  0.6128283771829535E+00   9   3   0   0
 -0.1638089491578253E+01   9   9   0   0
 -0.9881902199919259E+00  10  10   0   0
  0.6128283771829361E+00  11   4   0   0
 -0.1638089491578218E+01  11  11   0   0
 -0.9881902199919192E+00  12  12   0   0
 -0.9881902199919192E+00  13  13   0   0
 -0.4473255500548305E+02   0   0   0   0
