 &FCI NORB=  6,NELEC=  6,MS2= 0,
  ORBSYM=1,1,1,1,1,1,
  ISYM=1,
  OCC=  3,  0,  0,  0,  0,  0,  0,  0,
  CLOSED=  3,  0,  0,  0,  0,  0,  0,  0,
 /
  0.8258364921575505E+00   1   1   1   1
 -0.8371835576394669E-02   2   1   1   1
  0.9274838861163150E-02   2   1   2   1
  0.4398352832337468E+00   2   2   1   1
 -0.1195825602745870E-01   2   2   2   1
  0.8877916928835143E+00   2   2   2   2
  0.3204554249473396E-02   3   1   1   1
 -0.9231057968604886E-03   3   1   2   1
 -0.6242431320400441E-02   3   1   2   2
  0.4156550723911186E-03   3   1   3   1
 -0.1152867850612360E-01   3   2   1   1
 -0.1505892013210182E-02   3   2   2   1
 -0.1348560992867690E-01   3   2   2   2
 -0.9993688707489031E-03   3   2   3   1
  0.1019522337803228E-01   3   2   3   2
  0.2406830763826754E+00   3   3   1   1
 -0.1169733026842996E-01   3   3   2   1
  0.4587948724870185E+00   3   3   2   2
  0.6945565774556170E-03   3   3   3   1
 -0.1378381297844639E-01   3   3   3   2
  0.8916588282435149E+00   3   3   3   3
 -0.1060329811823179E-02   4   1   1   1
  0.1751157112867566E-03   4   1   2   1
  0.1231815344156497E-02   4   1   2   2
 -0.6448123410344732E-04   4   1   3   1
  0.8664825052676376E-04   4   1   3   2
  0.1294501951861902E-02   4   1   3   3
  0.2172707925438379E-04   4   1   4   1
  0.2434056112421971E-02   4   2   1   1
  0.3341016649989631E-03   4   2   2   1
  0.2648507513625208E-02   4   2   2   2
  0.4890319722763296E-04   4   2   3   1
 -0.1048164549739085E-02   4   2   3   2
 -0.6146064253144904E-02   4   2   3   3
 -0.5764398830736963E-04   4   2   4   1
  0.4490702933550450E-03   4   2   4   2
 -0.3287729857279365E-02   4   3   1   1
  0.7208720106476852E-03   4   3   2   1
 -0.1252527016295542E-01   4   3   2   2
  0.3460198682219416E-03   4   3   3   1
 -0.1460940515268542E-02   4   3   3   2
 -0.1380959879020253E-01   4   3   3   3
  0.1638274204138169E-03   4   3   4   1
 -0.1055713038865081E-02   4   3   4   2
  0.1026598782915340E-01   4   3   4   3
  0.1624982583482355E+00   4   4   1   1
 -0.3138198677781735E-02   4   4   2   1
  0.2473783225039093E+00   4   4   2   2
  0.1653328974635059E-02   4   4   3   1
 -0.1256027001546096E-01   4   4   3   2
  0.4599591421558016E+00   4   4   3   3
 -0.8562413526656248E-03   4   4   4   1
  0.2433538517393231E-02   4   4   4   2
 -0.1380959875551988E-01   4   4   4   3
  0.8916588282477508E+00   4   4   4   4
  0.2819203801094901E-03   5   1   1   1
 -0.4411199572310440E-04   5   1   2   1
 -0.2048552284042600E-03   5   1   2   2
  0.1291078967408409E-04   5   1   3   1
 -0.1217043689061260E-04   5   1   3   2
 -0.2943775871171342E-03   5   1   3   3
 -0.3420418149554987E-05   5   1   4   1
  0.6410445152669884E-05   5   1   4   2
 -0.9707783019349128E-05   5   1   4   3
 -0.1902503003508478E-03   5   1   4   4
  0.1196194891846535E-05   5   1   5   1
 -0.7002926606764859E-03   5   2   1   1
 -0.4839387004059007E-04   5   2   2   1
 -0.1134363701435038E-02   5   2   2   2
 -0.3806291932548668E-06   5   2   3   1
  0.1970775343047277E-03   5   2   3   2
  0.1228754817890705E-02   5   2   3   3
  0.4498533755544728E-05   5   2   4   1
 -0.6420692126116642E-04   5   2   4   2
  0.9109800040207769E-04   5   2   4   3
  0.1228754814384538E-02   5   2   4   4
 -0.3255579390908418E-05   5   2   5   1
  0.2468399617126999E-04   5   2   5   2
  0.7136761159243661E-03   5   3   1   1
 -0.1310853158772908E-03   5   3   2   1
  0.2505610754113874E-02   5   3   2   2
 -0.7502115129497393E-04   5   3   3   1
  0.3297567800608355E-03   5   3   3   2
  0.2433538515880922E-02   5   3   3   3
  0.4157690657518883E-05   5   3   4   1
  0.3603389412140678E-04   5   3   4   2
 -0.1055713039787763E-02   5   3   4   3
 -0.6146064254215375E-02   5   3   4   4
  0.1080350847529305E-04   5   3   5   1
 -0.6420692123953788E-04   5   3   5   2
  0.4490702931945824E-03   5   3   5   3
 -0.1191290910098546E-02   5   4   1   1
  0.1515343169796011E-03   5   4   2   1
 -0.3479449749754372E-02   5   4   2   2
 -0.1049958316204567E-03   5   4   3   1
  0.7554863600269504E-03   5   4   3   2
 -0.1256027001691849E-01   5   4   3   3
 -0.4370276508179337E-04   5   4   4   1
  0.3297567798315640E-03   5   4   4   2
 -0.1460940515329993E-02   5   4   4   3
 -0.1378381297902865E-01   5   4   4   4
 -0.4309792857166725E-04   5   4   5   1
  0.1970775344446688E-03   5   4   5   2
 -0.1048164548855659E-02   5   4   5   3
  0.1019522337830202E-01   5   4   5   4
  0.1225337226577121E+00   5   5   1   1
 -0.1075177155999134E-02   5   5   2   1
  0.1655027731953486E+00   5   5   2   2
  0.3917678565613994E-03   5   5   3   1
 -0.3479449749210384E-02   5   5   3   2
  0.2473783225017603E+00   5   5   3   3
 -0.5938462247060770E-03   5   5   4   1
  0.2505610754556947E-02   5   5   4   2
 -0.1252527014501165E-01   5   5   4   3
  0.4587948724888595E+00   5   5   4   4
  0.2769303771483771E-03   5   5   5   1
 -0.1134363713113838E-02   5   5   5   2
  0.2648507512690773E-02   5   5   5   3
 -0.1348560992644765E-01   5   5   5   4
  0.8877916928816632E+00   5   5   5   5
 -0.6173883996711938E-04   6   1   1   1
  0.9442605067947062E-05   6   1   2   1
  0.3588314771361163E-04   6   1   2   2
 -0.2667304874996387E-05   6   1   3   1
  0.2766222876471782E-05   6   1   3   2
  0.5290163357116323E-04   6   1   3   3
  0.6143696846191455E-06   6   1   4   1
 -0.8810952756628268E-06   6   1   4   2
  0.3391562708335347E-06   6   1   4   3
  0.5290163460339995E-04   6   1   4   4
 -0.1677072752689871E-06   6   1   5   1
  0.3078276902013909E-06   6   1   5   2
 -0.8810952433540730E-06   6   1   5   3
  0.2766222703955624E-05   6   1   5   4
  0.3588315242718403E-04   6   1   5   5
  0.5719148117304042E-07   6   1   6   1
  0.1556997833939308E-03   6   2   1   1
  0.7758186306278919E-05   6   2   2   1
  0.2769303728803207E-03   6   2   2   2
  0.1181212528425405E-06   6   2   3   1
 -0.4309792851198577E-04   6   2   3   2
 -0.1902503023444809E-03   6   2   3   3
 -0.4147790427136275E-06   6   2   4   1
  0.1080350848830951E-04   6   2   4   2
 -0.9707783059958924E-05   6   2   4   3
 -0.2943775868767416E-03   6   2   4   4
  0.2690462355070840E-06   6   2   5   1
 -0.3255579383256540E-05   6   2   5   2
  0.6410445152723630E-05   6   2   5   3
 -0.1217043690220400E-04   6   2   5   4
 -0.2048552263673242E-03   6   2   5   5
 -0.1677072744154896E-06   6   2   6   1
  0.1196194894247884E-05   6   2   6   2
 -0.1697167977327502E-03   6   3   1   1
  0.3039467998905727E-04   6   3   2   1
 -0.5938462242362952E-03   6   3   2   2
  0.1188957400058261E-04   6   3   3   1
 -0.4370276526803247E-04   6   3   3   2
 -0.8562413509976809E-03   6   3   3   3
 -0.2900013785995470E-05   6   3   4   1
  0.4157690579691619E-05   6   3   4   2
  0.1638274211978553E-03   6   3   4   3
  0.1294501952153358E-02   6   3   4   4
 -0.4147790305118446E-06   6   3   5   1
  0.4498533739229077E-05   6   3   5   2
 -0.5764398837448884E-04   6   3   5   3
  0.8664825039391994E-04   6   3   5   4
  0.1231815342263231E-02   6   3   5   5
  0.6143696707903659E-06   6   3   6   1
 -0.3420418156607544E-05   6   3   6   2
  0.2172707926775149E-04   6   3   6   3
  0.8356764274220708E-04   6   4   1   1
 -0.2245108936711539E-04   6   4   2   1
  0.3917678634619262E-03   6   4   2   2
  0.1426720412862317E-04   6   4   3   1
 -0.1049958322680614E-03   6   4   3   2
  0.1653328991419323E-02   6   4   3   3
  0.1188957394149573E-04   6   4   4   1
 -0.7502115119390550E-04   6   4   4   2
  0.3460198676612530E-03   6   4   4   3
  0.6945566130666593E-03   6   4   4   4
  0.1181211835454097E-06   6   4   5   1
 -0.3806289948758542E-06   6   4   5   2
  0.4890319672085002E-04   6   4   5   3
 -0.9993688713042970E-03   6   4   5   4
 -0.6242431319072920E-02   6   4   5   5
 -0.2667304822906911E-05   6   4   6   1
  0.1291078967081818E-04   6   4   6   2
 -0.6448123393244013E-04   6   4   6   3
  0.4156550722082711E-03   6   4   6   4
 -0.4521849485997211E-03   6   5   1   1
  0.3204172210613651E-04   6   5   2   1
 -0.1075177158013514E-02   6   5   2   2
 -0.2245108922933810E-04   6   5   3   1
  0.1515343170953880E-03   6   5   3   2
 -0.3138198681998917E-02   6   5   3   3
  0.3039467997335849E-04   6   5   4   1
 -0.1310853159257834E-03   6   5   4   2
  0.7208720102301854E-03   6   5   4   3
 -0.1169733027861530E-01   6   5   4   4
  0.7758186357213789E-05   6   5   5   1
 -0.4839386978120730E-04   6   5   5   2
  0.3341016647838187E-03   6   5   5   3
 -0.1505892013146663E-02   6   5   5   4
 -0.1195825604657775E-01   6   5   5   5
  0.9442604990626697E-05   6   5   6   1
 -0.4411199590027349E-04   6   5   6   2
  0.1751157111568482E-03   6   5   6   3
 -0.9231057965902214E-03   6   5   6   4
  0.9274838861318239E-02   6   5   6   5
  0.9725366225646087E-01   6   6   1   1
 -0.4521849474593310E-03   6   6   2   1
  0.1225337226578912E+00   6   6   2   2
  0.8356763914859310E-04   6   6   3   1
 -0.1191290909926805E-02   6   6   3   2
  0.1624982583481505E+00   6   6   3   3
 -0.1697167979958689E-03   6   6   4   1
  0.7136761162122342E-03   6   6   4   2
 -0.3287729850620667E-02   6   6   4   3
  0.2406830763838530E+00   6   6   4   4
  0.1556997851948183E-03   6   6   5   1
 -0.7002926657966261E-03   6   6   5   2
  0.2434056111433408E-02   6   6   5   3
 -0.1152867850465562E-01   6   6   5   4
  0.4398352832334820E+00   6   6   5   5
 -0.6173882877226824E-04   6   6   6   1
  0.2819203845587318E-03   6   6   6   2
 -0.1060329813926866E-02   6   6   6   3
  0.3204554218351217E-02   6   6   6   4
 -0.8371835561341828E-02   6   6   6   5
  0.8258364921596685E+00   6   6   6   6
 -0.1462716975780451E+01   1   1   0   0
 -0.2461445429341526E+00   2   1   0   0
 -0.1779525008252378E+01   2   2   0   0
  0.6062567883345255E-01   3   1   0   0
 -0.2589090039070833E+00   3   2   0   0
 -0.1892299154482875E+01   3   3   0   0
 -0.1497070277045440E-01   4   1   0   0
  0.6207741040269893E-01   4   2   0   0
 -0.2588316440191722E+00   4   3   0   0
 -0.1892299154448357E+01   4   4   0   0
  0.3999359750913822E-02   5   1   0   0
 -0.1589428950610449E-01   5   2   0   0
  0.6207741037800515E-01   5   3   0   0
 -0.2589090038946662E+00   5   4   0   0
 -0.1779525008271363E+01   5   5   0   0
 -0.9990654646227642E-03   6   1   0   0
  0.3999359763770674E-02   6   2   0   0
 -0.1497070278283850E-01   6   3   0   0
  0.6062567882026426E-01   6   4   0   0
 -0.2461445429346261E+00   6   5   0   0
 -0.1462716975752837E+01   6   6   0   0
  0.4350000000000000E+01   0   0   0   0
